Ar    ONCVPSP-3.3.0  r_core=   1.56397   1.56397   1.56397
     18.0000      8.0000      220408    zatom,zion,pspd
     8       2   2     4   400     0    pspcod,pspxc,lmax,lloc,mmax,r2well
  3.99000000  0.00000000  0.00000000    rchrg fchrg qchrg
     2     2     2     0     0    nproj
     1     1           extension_switch
   0                         8.5354708632523D+00  4.4348185053480D-01
     1  0.0000000000000D+00 -4.5487780209186D-11  2.5427965288927D-10
     2  1.0000000000000D-02  6.3588468784857D-02 -3.7650391378682D-02
     3  2.0000000000000D-02  1.2706003683952D-01 -7.5139262787723D-02
     4  3.0000000000000D-02  1.9029812165223D-01 -1.1230585888551D-01
     5  4.0000000000000D-02  2.5318677572859D-01 -1.4899094763486D-01
     6  5.0000000000000D-02  3.1561100056343D-01 -1.8503756714185D-01
     7  6.0000000000000D-02  3.7745705640090D-01 -2.2029175490112D-01
     8  7.0000000000000D-02  4.3861276643316D-01 -2.5460325388566D-01
     9  8.0000000000000D-02  4.9896781413299D-01 -2.8782619017274D-01
    10  9.0000000000000D-02  5.5841403247202D-01 -3.1981971711017D-01
    11  1.0000000000000D-01  6.1684568384142D-01 -3.5044862139241D-01
    12  1.1000000000000D-01  6.7415972956680D-01 -3.7958388683136D-01
    13  1.2000000000000D-01  7.3025608799148D-01 -4.0710321206643D-01
    14  1.3000000000000D-01  7.8503788019239D-01 -4.3289147895610D-01
    15  1.4000000000000D-01  8.3841166248891D-01 -4.5684116892442D-01
    16  1.5000000000000D-01  8.9028764500572D-01 -4.7885272509267D-01
    17  1.6000000000000D-01  9.4057989565624D-01 -4.9883485860220D-01
    18  1.7000000000000D-01  9.8920652902062D-01 -5.1670479812359D-01
    19  1.8000000000000D-01  1.0360898797017D+00 -5.3238848213982D-01
    20  1.9000000000000D-01  1.0811566598520D+00 -5.4582069418351D-01
    21  2.0000000000000D-01  1.1243381006733D+00 -5.5694514178937D-01
    22  2.1000000000000D-01  1.1655700777972D+00 -5.6571448048890D-01
    23  2.2000000000000D-01  1.2047932205590D+00 -5.7209028471664D-01
    24  2.3000000000000D-01  1.2419530052746D+00 -5.7604296800904D-01
    25  2.4000000000000D-01  1.2769998327262D+00 -5.7755165535383D-01
    26  2.5000000000000D-01  1.3098890901482D+00 -5.7660401098152D-01
    27  2.6000000000000D-01  1.3405811980862D+00 -5.7319602527820D-01
    28  2.7000000000000D-01  1.3690416425721D+00 -5.6733176483465D-01
    29  2.8000000000000D-01  1.3952409931263D+00 -5.5902308992633D-01
    30  2.9000000000000D-01  1.4191549071467D+00 -5.4828934394052D-01
    31  3.0000000000000D-01  1.4407641212949D+00 -5.3515701942676D-01
    32  3.1000000000000D-01  1.4600544305207D+00 -5.1965940554319D-01
    33  3.2000000000000D-01  1.4770166553951D+00 -5.0183622170534D-01
    34  3.3000000000000D-01  1.4916465984324D+00 -4.8173324221175D-01
    35  3.4000000000000D-01  1.5039449900932D+00 -4.5940191652773D-01
    36  3.5000000000000D-01  1.5139174251511D+00 -4.3489898975217D-01
    37  3.6000000000000D-01  1.5215742900940D+00 -4.0828612757729D-01
    38  3.7000000000000D-01  1.5269306822099D+00 -3.7962954978018D-01
    39  3.8000000000000D-01  1.5300063209757D+00 -3.4899967596129D-01
    40  3.9000000000000D-01  1.5308254523301D+00 -3.1647078687446D-01
    41  4.0000000000000D-01  1.5294167463680D+00 -2.8212070427911D-01
    42  4.1000000000000D-01  1.5258131889444D+00 -2.4603049179544D-01
    43  4.2000000000000D-01  1.5200519676222D+00 -2.0828417876290D-01
    44  4.3000000000000D-01  1.5121743523402D+00 -1.6896850859836D-01
    45  4.4000000000000D-01  1.5022255711187D+00 -1.2817271262971D-01
    46  4.5000000000000D-01  1.4902546810583D+00 -8.5988309850626D-02
    47  4.6000000000000D-01  1.4763144348288D+00 -4.2508932511160D-02
    48  4.7000000000000D-01  1.4604611427832D+00  2.1698230680068D-03
    49  4.8000000000000D-01  1.4427545307764D+00  4.7950521581331D-02
    50  4.9000000000000D-01  1.4232575937141D+00  9.4733991341027D-02
    51  5.0000000000000D-01  1.4020364448087D+00  1.4241940647744D-01
    52  5.1000000000000D-01  1.3791601604749D+00  1.9090435124736D-01
    53  5.2000000000000D-01  1.3547006207624D+00  2.4008486935085D-01
    54  5.3000000000000D-01  1.3287323451921D+00  2.8985550149845D-01
    55  5.4000000000000D-01  1.3013323238427D+00  3.4010931476129D-01
    56  5.5000000000000D-01  1.2725798435211D+00  3.9073792747003D-01
    57  5.6000000000000D-01  1.2425563088474D+00  4.4163153360253D-01
    58  5.7000000000000D-01  1.2113450580912D+00  4.9267893070763D-01
    59  5.8000000000000D-01  1.1790311736143D+00  5.4376755545801D-01
    60  5.9000000000000D-01  1.1457012867982D+00  5.9478353089893D-01
    61  6.0000000000000D-01  1.1114433773736D+00  6.4561172936924D-01
    62  6.1000000000000D-01  1.0763465671138D+00  6.9613585490986D-01
    63  6.2000000000000D-01  1.0405009079087D+00  7.4623854875057D-01
    64  6.3000000000000D-01  1.0039971643003D+00  7.9580152117433D-01
    65  6.4000000000000D-01  9.6692659063124D-01  8.4470571270923D-01
    66  6.5000000000000D-01  9.2938070303822D-01  8.9283148718866D-01
    67  6.6000000000000D-01  8.9145104660483D-01  9.4005885876079D-01
    68  6.7000000000000D-01  8.5322895808012D-01  9.8626775442346D-01
    69  6.8000000000000D-01  8.1480532466190D-01  1.0313383131109D+00
    70  6.9000000000000D-01  7.7627033944063D-01  1.0751512217802D+00
    71  7.0000000000000D-01  7.3771325419693D-01  1.1175880883404D+00
    72  7.1000000000000D-01  6.9922213034357D-01  1.1585318506405D+00
    73  7.2000000000000D-01  6.6088358889809D-01  1.1978672201016D+00
    74  7.3000000000000D-01  6.2278256046496D-01  1.2354811579424D+00
    75  7.4000000000000D-01  5.8500203629400D-01  1.2712633813193D+00
    76  7.5000000000000D-01  5.4762282156319D-01  1.3051068960969D+00
    77  7.6000000000000D-01  5.1072329210835D-01  1.3369085523727D+00
    78  7.7000000000000D-01  4.7437915588720D-01  1.3665696183336D+00
    79  7.8000000000000D-01  4.3866322051961D-01  1.3939963675100D+00
    80  7.9000000000000D-01  4.0364516828959D-01  1.4191006740351D+00
    81  8.0000000000000D-01  3.6939134002434D-01  1.4418006101133D+00
    82  8.1000000000000D-01  3.3596452928299D-01  1.4620210395648D+00
    83  8.2000000000000D-01  3.0342378828953D-01  1.4796942010440D+00
    84  8.3000000000000D-01  2.7182424703175D-01  1.4947602743354D+00
    85  8.4000000000000D-01  2.4121694691917D-01  1.5071679230188D+00
    86  8.5000000000000D-01  2.1164869034829D-01  1.5168748067640D+00
    87  8.6000000000000D-01  1.8316190746267D-01  1.5238480565663D+00
    88  8.7000000000000D-01  1.5579454131852D-01  1.5280647063819D+00
    89  8.8000000000000D-01  1.2957995257337D-01  1.5295120748420D+00
    90  8.9000000000000D-01  1.0454684470757D-01  1.5281880910449D+00
    91  9.0000000000000D-01  8.0719210665528D-02  1.5241015588194D+00
    92  9.1000000000000D-01  5.8116301666664D-02  1.5172723543324D+00
    93  9.2000000000000D-01  3.6752618787095D-02  1.5077315524706D+00
    94  9.3000000000000D-01  1.6637927751976D-02  1.4955214780514D+00
    95  9.4000000000000D-01 -2.2227027924191D-03  1.4806956786118D+00
    96  9.5000000000000D-01 -1.9828839437164D-02  1.4633188162760D+00
    97  9.6000000000000D-01 -3.6184598696061D-02  1.4434664770013D+00
    98  9.7000000000000D-01 -5.1298538505095D-02  1.4212248963454D+00
    99  9.8000000000000D-01 -6.5183527017828D-02  1.3966906017759D+00
   100  9.9000000000000D-01 -7.7856589372843D-02  1.3699699724373D+00
   101  1.0000000000000D+00 -8.9338733300462D-02  1.3411787181879D+00
   102  1.0100000000000D+00 -9.9654754631302D-02  1.3104412806505D+00
   103  1.0200000000000D+00 -1.0883302394901D-01  1.2778901599003D+00
   104  1.0300000000000D+00 -1.1690525580826D-01  1.2436651712943D+00
   105  1.0400000000000D+00 -1.2390626210518D-01  1.2079126377917D+00
   106  1.0500000000000D+00 -1.2987369134626D-01  1.1707845239308D+00
   107  1.0600000000000D+00 -1.3484775569137D-01  1.1324375183163D+00
   108  1.0700000000000D+00 -1.3887094778850D-01  1.0930320722378D+00
   109  1.0800000000000D+00 -1.4198774951289D-01  1.0527314025834D+00
   110  1.0900000000000D+00 -1.4424433481774D-01  1.0117004677651D+00
   111  1.1000000000000D+00 -1.4568826896990D-01  9.7010492580303D-01
   112  1.1100000000000D+00 -1.4636820649134D-01  9.2811008403807D-01
   113  1.1200000000000D+00 -1.4633359015491D-01  8.8587985021747D-01
   114  1.1300000000000D+00 -1.4563435338188D-01  8.4357569479345D-01
   115  1.1400000000000D+00 -1.4432062835714D-01  8.0135563426786D-01
   116  1.1500000000000D+00 -1.4244246215515D-01  7.5937324539264D-01
   117  1.1600000000000D+00 -1.4004954307607D-01  7.1777671975600D-01
   118  1.1700000000000D+00 -1.3719093931005D-01  6.7670796798519D-01
   119  1.1800000000000D+00 -1.3391485191220D-01  6.3630178228246D-01
   120  1.1900000000000D+00 -1.3026838398402D-01  5.9668506568235D-01
   121  1.2000000000000D+00 -1.2629732773370D-01  5.5797613549931D-01
   122  1.2100000000000D+00 -1.2204597092015D-01  5.2028410771798D-01
   123  1.2200000000000D+00 -1.1755692404757D-01  4.8370836849380D-01
   124  1.2300000000000D+00 -1.1287096940470D-01  4.4833813775289D-01
   125  1.2400000000000D+00 -1.0802693279859D-01  4.1425212878698D-01
   126  1.2500000000000D+00 -1.0306157865254D-01  3.8151830693467D-01
   127  1.2600000000000D+00 -9.8009528899381D-02  3.5019374937952D-01
   128  1.2700000000000D+00 -9.2903205722038D-02  3.2032460636061D-01
   129  1.2800000000000D+00 -8.7772798056029D-02  2.9194616345598D-01
   130  1.2900000000000D+00 -8.2646251538031D-02  2.6508300355475D-01
   131  1.3000000000000D+00 -7.7549281114191D-02  2.3974926493946D-01
   132  1.3100000000000D+00 -7.2505405489560D-02  2.1594899174537D-01
   133  1.3200000000000D+00 -6.7536002308301D-02  1.9367657171187D-01
   134  1.3300000000000D+00 -6.2660382503605D-02  1.7291725400497D-01
   135  1.3400000000000D+00 -5.7895882356244D-02  1.5364774036316D-01
   136  1.3500000000000D+00 -5.3257971362053D-02  1.3583684074844D-01
   137  1.3600000000000D+00 -4.8760373753982D-02  1.1944618344879D-01
   138  1.3700000000000D+00 -4.4415201680929D-02  1.0443097034209D-01
   139  1.3800000000000D+00 -4.0233097450447D-02  9.0740765167719D-02
   140  1.3900000000000D+00 -3.6223382419762D-02  7.8320303489401D-02
   141  1.4000000000000D+00 -3.2394209938079D-02  6.7110312177436D-02
   142  1.4100000000000D+00 -2.8752719534142D-02  5.7048325183001D-02
   143  1.4200000000000D+00 -2.5305189697745D-02  4.8069483153831D-02
   144  1.4300000000000D+00 -2.2057186352517D-02  4.0107303185141D-02
   145  1.4400000000000D+00 -1.9013704361443D-02  3.3094406162298D-02
   146  1.4500000000000D+00 -1.6179299114814D-02  2.6963187769491D-02
   147  1.4600000000000D+00 -1.3558204817396D-02  2.1646414003342D-02
   148  1.4700000000000D+00 -1.1154442162667D-02  1.7077772648909D-02
   149  1.4800000000000D+00 -8.9718909432174D-03  1.3192193281171D-02
   150  1.4900000000000D+00 -7.0144004913047D-03  9.9265158982988D-03
   151  1.5000000000000D+00 -5.2858001799423D-03  7.2194519536316D-03
   152  1.5100000000000D+00 -3.7899188053201D-03  5.0105348892721D-03
   153  1.5200000000000D+00 -2.5312585573714D-03  3.2443781169366D-03
   154  1.5300000000000D+00 -1.5099133789834D-03  1.8692118959462D-03
   155  1.5400000000000D+00 -7.3676560885096D-04  8.5520406404931D-04
   156  1.5500000000000D+00 -2.3672742687205D-04  1.9603356090861D-04
   157  1.5600000000000D+00  5.8651683358470D-06 -1.2524928217259D-04
   158  1.5700000000000D+00  5.5345870903885D-05 -1.5068008940785D-04
   159  1.5800000000000D+00  1.3315251002795D-05 -3.1654391832134D-05
   160  1.5900000000000D+00 -1.2073952202283D-05  2.7508529925873D-05
   161  1.6000000000000D+00 -2.9079318592501D-06  6.4372860946564D-06
   162  1.6100000000000D+00  2.3983742780212D-06 -5.7800190709187D-06
   163  1.6200000000000D+00  3.4227879027029D-07 -8.1260274396726D-07
   164  1.6300000000000D+00 -1.2647942202160D-07  4.7886672378824D-07
   165  1.6400000000000D+00 -7.6731283996771D-09  2.9051412468760D-08
   166  1.6500000000000D+00  0.0000000000000D+00  0.0000000000000D+00
   167  1.6600000000000D+00  0.0000000000000D+00  0.0000000000000D+00
   168  1.6700000000000D+00  0.0000000000000D+00  0.0000000000000D+00
   169  1.6800000000000D+00  0.0000000000000D+00  0.0000000000000D+00
   170  1.6900000000000D+00  0.0000000000000D+00  0.0000000000000D+00
   171  1.7000000000000D+00  0.0000000000000D+00  0.0000000000000D+00
   172  1.7100000000000D+00  0.0000000000000D+00  0.0000000000000D+00
   173  1.7200000000000D+00  0.0000000000000D+00  0.0000000000000D+00
   174  1.7300000000000D+00  0.0000000000000D+00  0.0000000000000D+00
   175  1.7400000000000D+00  0.0000000000000D+00  0.0000000000000D+00
   176  1.7500000000000D+00  0.0000000000000D+00  0.0000000000000D+00
   177  1.7600000000000D+00  0.0000000000000D+00  0.0000000000000D+00
   178  1.7700000000000D+00  0.0000000000000D+00  0.0000000000000D+00
   179  1.7800000000000D+00  0.0000000000000D+00  0.0000000000000D+00
   180  1.7900000000000D+00  0.0000000000000D+00  0.0000000000000D+00
   181  1.8000000000000D+00  0.0000000000000D+00  0.0000000000000D+00
   182  1.8100000000000D+00  0.0000000000000D+00  0.0000000000000D+00
   183  1.8200000000000D+00  0.0000000000000D+00  0.0000000000000D+00
   184  1.8300000000000D+00  0.0000000000000D+00  0.0000000000000D+00
   185  1.8400000000000D+00  0.0000000000000D+00  0.0000000000000D+00
   186  1.8500000000000D+00  0.0000000000000D+00  0.0000000000000D+00
   187  1.8600000000000D+00  0.0000000000000D+00  0.0000000000000D+00
   188  1.8700000000000D+00  0.0000000000000D+00  0.0000000000000D+00
   189  1.8800000000000D+00  0.0000000000000D+00  0.0000000000000D+00
   190  1.8900000000000D+00  0.0000000000000D+00  0.0000000000000D+00
   191  1.9000000000000D+00  0.0000000000000D+00  0.0000000000000D+00
   192  1.9100000000000D+00  0.0000000000000D+00  0.0000000000000D+00
   193  1.9200000000000D+00  0.0000000000000D+00  0.0000000000000D+00
   194  1.9300000000000D+00  0.0000000000000D+00  0.0000000000000D+00
   195  1.9400000000000D+00  0.0000000000000D+00  0.0000000000000D+00
   196  1.9500000000000D+00  0.0000000000000D+00  0.0000000000000D+00
   197  1.9600000000000D+00  0.0000000000000D+00  0.0000000000000D+00
   198  1.9700000000000D+00  0.0000000000000D+00  0.0000000000000D+00
   199  1.9800000000000D+00  0.0000000000000D+00  0.0000000000000D+00
   200  1.9900000000000D+00  0.0000000000000D+00  0.0000000000000D+00
   201  2.0000000000000D+00  0.0000000000000D+00  0.0000000000000D+00
   202  2.0100000000000D+00  0.0000000000000D+00  0.0000000000000D+00
   203  2.0200000000000D+00  0.0000000000000D+00  0.0000000000000D+00
   204  2.0300000000000D+00  0.0000000000000D+00  0.0000000000000D+00
   205  2.0400000000000D+00  0.0000000000000D+00  0.0000000000000D+00
   206  2.0500000000000D+00  0.0000000000000D+00  0.0000000000000D+00
   207  2.0600000000000D+00  0.0000000000000D+00  0.0000000000000D+00
   208  2.0700000000000D+00  0.0000000000000D+00  0.0000000000000D+00
   209  2.0800000000000D+00  0.0000000000000D+00  0.0000000000000D+00
   210  2.0900000000000D+00  0.0000000000000D+00  0.0000000000000D+00
   211  2.1000000000000D+00  0.0000000000000D+00  0.0000000000000D+00
   212  2.1100000000000D+00  0.0000000000000D+00  0.0000000000000D+00
   213  2.1200000000000D+00  0.0000000000000D+00  0.0000000000000D+00
   214  2.1300000000000D+00  0.0000000000000D+00  0.0000000000000D+00
   215  2.1400000000000D+00  0.0000000000000D+00  0.0000000000000D+00
   216  2.1500000000000D+00  0.0000000000000D+00  0.0000000000000D+00
   217  2.1600000000000D+00  0.0000000000000D+00  0.0000000000000D+00
   218  2.1700000000000D+00  0.0000000000000D+00  0.0000000000000D+00
   219  2.1800000000000D+00  0.0000000000000D+00  0.0000000000000D+00
   220  2.1900000000000D+00  0.0000000000000D+00  0.0000000000000D+00
   221  2.2000000000000D+00  0.0000000000000D+00  0.0000000000000D+00
   222  2.2100000000000D+00  0.0000000000000D+00  0.0000000000000D+00
   223  2.2200000000000D+00  0.0000000000000D+00  0.0000000000000D+00
   224  2.2300000000000D+00  0.0000000000000D+00  0.0000000000000D+00
   225  2.2400000000000D+00  0.0000000000000D+00  0.0000000000000D+00
   226  2.2500000000000D+00  0.0000000000000D+00  0.0000000000000D+00
   227  2.2600000000000D+00  0.0000000000000D+00  0.0000000000000D+00
   228  2.2700000000000D+00  0.0000000000000D+00  0.0000000000000D+00
   229  2.2800000000000D+00  0.0000000000000D+00  0.0000000000000D+00
   230  2.2900000000000D+00  0.0000000000000D+00  0.0000000000000D+00
   231  2.3000000000000D+00  0.0000000000000D+00  0.0000000000000D+00
   232  2.3100000000000D+00  0.0000000000000D+00  0.0000000000000D+00
   233  2.3200000000000D+00  0.0000000000000D+00  0.0000000000000D+00
   234  2.3300000000000D+00  0.0000000000000D+00  0.0000000000000D+00
   235  2.3400000000000D+00  0.0000000000000D+00  0.0000000000000D+00
   236  2.3500000000000D+00  0.0000000000000D+00  0.0000000000000D+00
   237  2.3600000000000D+00  0.0000000000000D+00  0.0000000000000D+00
   238  2.3700000000000D+00  0.0000000000000D+00  0.0000000000000D+00
   239  2.3800000000000D+00  0.0000000000000D+00  0.0000000000000D+00
   240  2.3900000000000D+00  0.0000000000000D+00  0.0000000000000D+00
   241  2.4000000000000D+00  0.0000000000000D+00  0.0000000000000D+00
   242  2.4100000000000D+00  0.0000000000000D+00  0.0000000000000D+00
   243  2.4200000000000D+00  0.0000000000000D+00  0.0000000000000D+00
   244  2.4300000000000D+00  0.0000000000000D+00  0.0000000000000D+00
   245  2.4400000000000D+00  0.0000000000000D+00  0.0000000000000D+00
   246  2.4500000000000D+00  0.0000000000000D+00  0.0000000000000D+00
   247  2.4600000000000D+00  0.0000000000000D+00  0.0000000000000D+00
   248  2.4700000000000D+00  0.0000000000000D+00  0.0000000000000D+00
   249  2.4800000000000D+00  0.0000000000000D+00  0.0000000000000D+00
   250  2.4900000000000D+00  0.0000000000000D+00  0.0000000000000D+00
   251  2.5000000000000D+00  0.0000000000000D+00  0.0000000000000D+00
   252  2.5100000000000D+00  0.0000000000000D+00  0.0000000000000D+00
   253  2.5200000000000D+00  0.0000000000000D+00  0.0000000000000D+00
   254  2.5300000000000D+00  0.0000000000000D+00  0.0000000000000D+00
   255  2.5400000000000D+00  0.0000000000000D+00  0.0000000000000D+00
   256  2.5500000000000D+00  0.0000000000000D+00  0.0000000000000D+00
   257  2.5600000000000D+00  0.0000000000000D+00  0.0000000000000D+00
   258  2.5700000000000D+00  0.0000000000000D+00  0.0000000000000D+00
   259  2.5800000000000D+00  0.0000000000000D+00  0.0000000000000D+00
   260  2.5900000000000D+00  0.0000000000000D+00  0.0000000000000D+00
   261  2.6000000000000D+00  0.0000000000000D+00  0.0000000000000D+00
   262  2.6100000000000D+00  0.0000000000000D+00  0.0000000000000D+00
   263  2.6200000000000D+00  0.0000000000000D+00  0.0000000000000D+00
   264  2.6300000000000D+00  0.0000000000000D+00  0.0000000000000D+00
   265  2.6400000000000D+00  0.0000000000000D+00  0.0000000000000D+00
   266  2.6500000000000D+00  0.0000000000000D+00  0.0000000000000D+00
   267  2.6600000000000D+00  0.0000000000000D+00  0.0000000000000D+00
   268  2.6700000000000D+00  0.0000000000000D+00  0.0000000000000D+00
   269  2.6800000000000D+00  0.0000000000000D+00  0.0000000000000D+00
   270  2.6900000000000D+00  0.0000000000000D+00  0.0000000000000D+00
   271  2.7000000000000D+00  0.0000000000000D+00  0.0000000000000D+00
   272  2.7100000000000D+00  0.0000000000000D+00  0.0000000000000D+00
   273  2.7200000000000D+00  0.0000000000000D+00  0.0000000000000D+00
   274  2.7300000000000D+00  0.0000000000000D+00  0.0000000000000D+00
   275  2.7400000000000D+00  0.0000000000000D+00  0.0000000000000D+00
   276  2.7500000000000D+00  0.0000000000000D+00  0.0000000000000D+00
   277  2.7600000000000D+00  0.0000000000000D+00  0.0000000000000D+00
   278  2.7700000000000D+00  0.0000000000000D+00  0.0000000000000D+00
   279  2.7800000000000D+00  0.0000000000000D+00  0.0000000000000D+00
   280  2.7900000000000D+00  0.0000000000000D+00  0.0000000000000D+00
   281  2.8000000000000D+00  0.0000000000000D+00  0.0000000000000D+00
   282  2.8100000000000D+00  0.0000000000000D+00  0.0000000000000D+00
   283  2.8200000000000D+00  0.0000000000000D+00  0.0000000000000D+00
   284  2.8300000000000D+00  0.0000000000000D+00  0.0000000000000D+00
   285  2.8400000000000D+00  0.0000000000000D+00  0.0000000000000D+00
   286  2.8500000000000D+00  0.0000000000000D+00  0.0000000000000D+00
   287  2.8600000000000D+00  0.0000000000000D+00  0.0000000000000D+00
   288  2.8700000000000D+00  0.0000000000000D+00  0.0000000000000D+00
   289  2.8800000000000D+00  0.0000000000000D+00  0.0000000000000D+00
   290  2.8900000000000D+00  0.0000000000000D+00  0.0000000000000D+00
   291  2.9000000000000D+00  0.0000000000000D+00  0.0000000000000D+00
   292  2.9100000000000D+00  0.0000000000000D+00  0.0000000000000D+00
   293  2.9200000000000D+00  0.0000000000000D+00  0.0000000000000D+00
   294  2.9300000000000D+00  0.0000000000000D+00  0.0000000000000D+00
   295  2.9400000000000D+00  0.0000000000000D+00  0.0000000000000D+00
   296  2.9500000000000D+00  0.0000000000000D+00  0.0000000000000D+00
   297  2.9600000000000D+00  0.0000000000000D+00  0.0000000000000D+00
   298  2.9700000000000D+00  0.0000000000000D+00  0.0000000000000D+00
   299  2.9800000000000D+00  0.0000000000000D+00  0.0000000000000D+00
   300  2.9900000000000D+00  0.0000000000000D+00  0.0000000000000D+00
   301  3.0000000000000D+00  0.0000000000000D+00  0.0000000000000D+00
   302  3.0100000000000D+00  0.0000000000000D+00  0.0000000000000D+00
   303  3.0200000000000D+00  0.0000000000000D+00  0.0000000000000D+00
   304  3.0300000000000D+00  0.0000000000000D+00  0.0000000000000D+00
   305  3.0400000000000D+00  0.0000000000000D+00  0.0000000000000D+00
   306  3.0500000000000D+00  0.0000000000000D+00  0.0000000000000D+00
   307  3.0600000000000D+00  0.0000000000000D+00  0.0000000000000D+00
   308  3.0700000000000D+00  0.0000000000000D+00  0.0000000000000D+00
   309  3.0800000000000D+00  0.0000000000000D+00  0.0000000000000D+00
   310  3.0900000000000D+00  0.0000000000000D+00  0.0000000000000D+00
   311  3.1000000000000D+00  0.0000000000000D+00  0.0000000000000D+00
   312  3.1100000000000D+00  0.0000000000000D+00  0.0000000000000D+00
   313  3.1200000000000D+00  0.0000000000000D+00  0.0000000000000D+00
   314  3.1300000000000D+00  0.0000000000000D+00  0.0000000000000D+00
   315  3.1400000000000D+00  0.0000000000000D+00  0.0000000000000D+00
   316  3.1500000000000D+00  0.0000000000000D+00  0.0000000000000D+00
   317  3.1600000000000D+00  0.0000000000000D+00  0.0000000000000D+00
   318  3.1700000000000D+00  0.0000000000000D+00  0.0000000000000D+00
   319  3.1800000000000D+00  0.0000000000000D+00  0.0000000000000D+00
   320  3.1900000000000D+00  0.0000000000000D+00  0.0000000000000D+00
   321  3.2000000000000D+00  0.0000000000000D+00  0.0000000000000D+00
   322  3.2100000000000D+00  0.0000000000000D+00  0.0000000000000D+00
   323  3.2200000000000D+00  0.0000000000000D+00  0.0000000000000D+00
   324  3.2300000000000D+00  0.0000000000000D+00  0.0000000000000D+00
   325  3.2400000000000D+00  0.0000000000000D+00  0.0000000000000D+00
   326  3.2500000000000D+00  0.0000000000000D+00  0.0000000000000D+00
   327  3.2600000000000D+00  0.0000000000000D+00  0.0000000000000D+00
   328  3.2700000000000D+00  0.0000000000000D+00  0.0000000000000D+00
   329  3.2800000000000D+00  0.0000000000000D+00  0.0000000000000D+00
   330  3.2900000000000D+00  0.0000000000000D+00  0.0000000000000D+00
   331  3.3000000000000D+00  0.0000000000000D+00  0.0000000000000D+00
   332  3.3100000000000D+00  0.0000000000000D+00  0.0000000000000D+00
   333  3.3200000000000D+00  0.0000000000000D+00  0.0000000000000D+00
   334  3.3300000000000D+00  0.0000000000000D+00  0.0000000000000D+00
   335  3.3400000000000D+00  0.0000000000000D+00  0.0000000000000D+00
   336  3.3500000000000D+00  0.0000000000000D+00  0.0000000000000D+00
   337  3.3600000000000D+00  0.0000000000000D+00  0.0000000000000D+00
   338  3.3700000000000D+00  0.0000000000000D+00  0.0000000000000D+00
   339  3.3800000000000D+00  0.0000000000000D+00  0.0000000000000D+00
   340  3.3900000000000D+00  0.0000000000000D+00  0.0000000000000D+00
   341  3.4000000000000D+00  0.0000000000000D+00  0.0000000000000D+00
   342  3.4100000000000D+00  0.0000000000000D+00  0.0000000000000D+00
   343  3.4200000000000D+00  0.0000000000000D+00  0.0000000000000D+00
   344  3.4300000000000D+00  0.0000000000000D+00  0.0000000000000D+00
   345  3.4400000000000D+00  0.0000000000000D+00  0.0000000000000D+00
   346  3.4500000000000D+00  0.0000000000000D+00  0.0000000000000D+00
   347  3.4600000000000D+00  0.0000000000000D+00  0.0000000000000D+00
   348  3.4700000000000D+00  0.0000000000000D+00  0.0000000000000D+00
   349  3.4800000000000D+00  0.0000000000000D+00  0.0000000000000D+00
   350  3.4900000000000D+00  0.0000000000000D+00  0.0000000000000D+00
   351  3.5000000000000D+00  0.0000000000000D+00  0.0000000000000D+00
   352  3.5100000000000D+00  0.0000000000000D+00  0.0000000000000D+00
   353  3.5200000000000D+00  0.0000000000000D+00  0.0000000000000D+00
   354  3.5300000000000D+00  0.0000000000000D+00  0.0000000000000D+00
   355  3.5400000000000D+00  0.0000000000000D+00  0.0000000000000D+00
   356  3.5500000000000D+00  0.0000000000000D+00  0.0000000000000D+00
   357  3.5600000000000D+00  0.0000000000000D+00  0.0000000000000D+00
   358  3.5700000000000D+00  0.0000000000000D+00  0.0000000000000D+00
   359  3.5800000000000D+00  0.0000000000000D+00  0.0000000000000D+00
   360  3.5900000000000D+00  0.0000000000000D+00  0.0000000000000D+00
   361  3.6000000000000D+00  0.0000000000000D+00  0.0000000000000D+00
   362  3.6100000000000D+00  0.0000000000000D+00  0.0000000000000D+00
   363  3.6200000000000D+00  0.0000000000000D+00  0.0000000000000D+00
   364  3.6300000000000D+00  0.0000000000000D+00  0.0000000000000D+00
   365  3.6400000000000D+00  0.0000000000000D+00  0.0000000000000D+00
   366  3.6500000000000D+00  0.0000000000000D+00  0.0000000000000D+00
   367  3.6600000000000D+00  0.0000000000000D+00  0.0000000000000D+00
   368  3.6700000000000D+00  0.0000000000000D+00  0.0000000000000D+00
   369  3.6800000000000D+00  0.0000000000000D+00  0.0000000000000D+00
   370  3.6900000000000D+00  0.0000000000000D+00  0.0000000000000D+00
   371  3.7000000000000D+00  0.0000000000000D+00  0.0000000000000D+00
   372  3.7100000000000D+00  0.0000000000000D+00  0.0000000000000D+00
   373  3.7200000000000D+00  0.0000000000000D+00  0.0000000000000D+00
   374  3.7300000000000D+00  0.0000000000000D+00  0.0000000000000D+00
   375  3.7400000000000D+00  0.0000000000000D+00  0.0000000000000D+00
   376  3.7500000000000D+00  0.0000000000000D+00  0.0000000000000D+00
   377  3.7600000000000D+00  0.0000000000000D+00  0.0000000000000D+00
   378  3.7700000000000D+00  0.0000000000000D+00  0.0000000000000D+00
   379  3.7800000000000D+00  0.0000000000000D+00  0.0000000000000D+00
   380  3.7900000000000D+00  0.0000000000000D+00  0.0000000000000D+00
   381  3.8000000000000D+00  0.0000000000000D+00  0.0000000000000D+00
   382  3.8100000000000D+00  0.0000000000000D+00  0.0000000000000D+00
   383  3.8200000000000D+00  0.0000000000000D+00  0.0000000000000D+00
   384  3.8300000000000D+00  0.0000000000000D+00  0.0000000000000D+00
   385  3.8400000000000D+00  0.0000000000000D+00  0.0000000000000D+00
   386  3.8500000000000D+00  0.0000000000000D+00  0.0000000000000D+00
   387  3.8600000000000D+00  0.0000000000000D+00  0.0000000000000D+00
   388  3.8700000000000D+00  0.0000000000000D+00  0.0000000000000D+00
   389  3.8800000000000D+00  0.0000000000000D+00  0.0000000000000D+00
   390  3.8900000000000D+00  0.0000000000000D+00  0.0000000000000D+00
   391  3.9000000000000D+00  0.0000000000000D+00  0.0000000000000D+00
   392  3.9100000000000D+00  0.0000000000000D+00  0.0000000000000D+00
   393  3.9200000000000D+00  0.0000000000000D+00  0.0000000000000D+00
   394  3.9300000000000D+00  0.0000000000000D+00  0.0000000000000D+00
   395  3.9400000000000D+00  0.0000000000000D+00  0.0000000000000D+00
   396  3.9500000000000D+00  0.0000000000000D+00  0.0000000000000D+00
   397  3.9600000000000D+00  0.0000000000000D+00  0.0000000000000D+00
   398  3.9700000000000D+00  0.0000000000000D+00  0.0000000000000D+00
   399  3.9800000000000D+00  0.0000000000000D+00  0.0000000000000D+00
   400  3.9900000000000D+00  0.0000000000000D+00  0.0000000000000D+00
   1                         2.3228851993052D+00  2.2690103855474D-01
     1  0.0000000000000D+00  3.5146764665317D-10 -1.3560987541239D-09
     2  1.0000000000000D-02  1.3992042046892D-03 -8.4561098433578D-04
     3  2.0000000000000D-02  5.5914872150722D-03 -3.3756157859724D-03
     4  3.0000000000000D-02  1.2560885715408D-02 -7.5695920045306D-03
     5  4.0000000000000D-02  2.2280878970312D-02 -1.3393708388095D-02
     6  5.0000000000000D-02  3.4714515336099D-02 -2.0801031294546D-02
     7  6.0000000000000D-02  4.9814588034912D-02 -2.9731948452990D-02
     8  7.0000000000000D-02  6.7523858868448D-02 -4.0114704830630D-02
     9  8.0000000000000D-02  8.7775328196663D-02 -5.1866044054311D-02
    10  9.0000000000000D-02  1.1049254917424D-01 -6.4891947571153D-02
    11  1.0000000000000D-01  1.3558998392859D-01 -7.9088462580621D-02
    12  1.1000000000000D-01  1.6297339907996D-01 -9.4342608743115D-02
    13  1.2000000000000D-01  1.9254029775102D-01 -1.1053335278599D-01
    14  1.3000000000000D-01  2.2418038499204D-01 -1.2753263939650D-01
    15  1.4000000000000D-01  2.5777606336038D-01 -1.4520646622300D-01
    16  1.5000000000000D-01  2.9320295524266D-01 -1.6341599040980D-01
    17  1.6000000000000D-01  3.3033044839356D-01 -1.8201865387032D-01
    18  1.7000000000000D-01  3.6902226108985D-01 -2.0086931446260D-01
    19  1.8000000000000D-01  4.0913702326008D-01 -2.1982137036730D-01
    20  1.9000000000000D-01  4.5052886995101D-01 -2.3872786528311D-01
    21  2.0000000000000D-01  4.9304804352818D-01 -2.5744256253740D-01