<UPF version="2.0.1">
  <PP_INFO>

 This pseudopotential file has been produced using the code
 ONCVPSP  (Optimized Norm-Conservinng Vanderbilt PSeudopotential)
 scalar-relativistic version 3.3.0 08/16/2017 by D. R. Hamann
 The code is available through a link at URL www.mat-simresearch.com.
 Documentation with the package provides a full discription of the
 input data below.


 While it is not required under the terms of the GNU GPL, it is
 suggested that you cite D. R. Hamann, Phys. Rev. B 88, 085117 (2013)
 in any publication using these pseudopotentials.

    <PP_INPUTFILE>
# ATOM AND REFERENCE CONFIGURATION
# atsym  z   nc   nv     iexc    psfile
  Ar 18.00    3    2       3      both
#
#   n    l    f        energy (Ha)
    1    0    2.00
    2    0    2.00
    2    1    6.00
    3    0    2.00
    3    1    6.00
#
# PSEUDOPOTENTIAL AND OPTIMIZATION
# lmax
    2
#
#   l,   rc,      ep,       ncon, nbas, qcut
    0   1.55000  -0.89166    4    8   8.20000
    1   1.55000  -0.38170    4    8   8.20000
    2   1.55000   0.10000    4    8   8.20000
#
# LOCAL POTENTIAL
# lloc, lpopt,  rc(5),   dvloc0
    4    5   1.50000      0.00000
#
# VANDERBILT-KLEINMAN-BYLANDER PROJECTORs
# l, nproj, debl
    0    2   1.50000
    1    2   1.50000
    2    2   1.00000
#
# MODEL CORE CHARGE
# icmod, fcfact, rcfact
    0   0.00000   0.00000
#
# LOG DERIVATIVE ANALYSIS
# epsh1, epsh2, depsh
  -12.00   12.00    0.02
#
# OUTPUT GRID
# rlmax, drl
    4.00    0.01
#
# TEST CONFIGURATIONS
# ncnf
    0
# nvcnf
#   n    l    f
    </PP_INPUTFILE>
  </PP_INFO>
  <!--                               -->
  <!-- END OF HUMAN READABLE SECTION -->
  <!--                               -->
    <PP_HEADER
       generated="Generated using ONCVPSP code by D. R. Hamann"
       author="anonymous"
       date="220408"
       comment=""
       element="Ar"
       pseudo_type="NC"
       relativistic="scalar"
       is_ultrasoft="F"
       is_paw="F"
       is_coulomb="F"
       has_so="F"
       has_wfc="F"
       has_gipaw="F"
       core_correction="F"
       functional="PZ"
       z_valence="    8.00"
       total_psenergy="  -4.21617024091E+01"
       rho_cutoff="   9.25000000000E+00"
       l_max="2"
       l_local="-1"
       mesh_size="   926"
       number_of_wfc="2"
       number_of_proj="6"/>
 <PP_MESH>
   <PP_R type="real"  size=" 926" columns="8">
    0.0000    0.0100    0.0200    0.0300    0.0400    0.0500    0.0600    0.0700
    0.0800    0.0900    0.1000    0.1100    0.1200    0.1300    0.1400    0.1500
    0.1600    0.1700    0.1800    0.1900    0.2000    0.2100    0.2200    0.2300
    0.2400    0.2500    0.2600    0.2700    0.2800    0.2900    0.3000    0.3100
    0.3200    0.3300    0.3400    0.3500    0.3600    0.3700    0.3800    0.3900
    0.4000    0.4100    0.4200    0.4300    0.4400    0.4500    0.4600    0.4700
    0.4800    0.4900    0.5000    0.5100    0.5200    0.5300    0.5400    0.5500
    0.5600    0.5700    0.5800    0.5900    0.6000    0.6100    0.6200    0.6300
    0.6400    0.6500    0.6600    0.6700    0.6800    0.6900    0.7000    0.7100
    0.7200    0.7300    0.7400    0.7500    0.7600    0.7700    0.7800    0.7900
    0.8000    0.8100    0.8200    0.8300    0.8400    0.8500    0.8600    0.8700
    0.8800    0.8900    0.9000    0.9100    0.9200    0.9300    0.9400    0.9500
    0.9600    0.9700    0.9800    0.9900    1.0000    1.0100    1.0200    1.0300
    1.0400    1.0500    1.0600    1.0700    1.0800    1.0900    1.1000    1.1100
    1.1200    1.1300    1.1400    1.1500    1.1600    1.1700    1.1800    1.1900
    1.2000    1.2100    1.2200    1.2300    1.2400    1.2500    1.2600    1.2700
    1.2800    1.2900    1.3000    1.3100    1.3200    1.3300    1.3400    1.3500
    1.3600    1.3700    1.3800    1.3900    1.4000    1.4100    1.4200    1.4300
    1.4400    1.4500    1.4600    1.4700    1.4800    1.4900    1.5000    1.5100
    1.5200    1.5300    1.5400    1.5500    1.5600    1.5700    1.5800    1.5900
    1.6000    1.6100    1.6200    1.6300    1.6400    1.6500    1.6600    1.6700
    1.6800    1.6900    1.7000    1.7100    1.7200    1.7300    1.7400    1.7500
    1.7600    1.7700    1.7800    1.7900    1.8000    1.8100    1.8200    1.8300
    1.8400    1.8500    1.8600    1.8700    1.8800    1.8900    1.9000    1.9100
    1.9200    1.9300    1.9400    1.9500    1.9600    1.9700    1.9800    1.9900
    2.0000    2.0100    2.0200    2.0300    2.0400    2.0500    2.0600    2.0700
    2.0800    2.0900    2.1000    2.1100    2.1200    2.1300    2.1400    2.1500
    2.1600    2.1700    2.1800    2.1900    2.2000    2.2100    2.2200    2.2300
    2.2400    2.2500    2.2600    2.2700    2.2800    2.2900    2.3000    2.3100
    2.3200    2.3300    2.3400    2.3500    2.3600    2.3700    2.3800    2.3900
    2.4000    2.4100    2.4200    2.4300    2.4400    2.4500    2.4600    2.4700
    2.4800    2.4900    2.5000    2.5100    2.5200    2.5300    2.5400    2.5500
    2.5600    2.5700    2.5800    2.5900    2.6000    2.6100    2.6200    2.6300
    2.6400    2.6500    2.6600    2.6700    2.6800    2.6900    2.7000    2.7100
    2.7200    2.7300    2.7400    2.7500    2.7600    2.7700    2.7800    2.7900
    2.8000    2.8100    2.8200    2.8300    2.8400    2.8500    2.8600    2.8700
    2.8800    2.8900    2.9000    2.9100    2.9200    2.9300    2.9400    2.9500
    2.9600    2.9700    2.9800    2.9900    3.0000    3.0100    3.0200    3.0300
    3.0400    3.0500    3.0600    3.0700    3.0800    3.0900    3.1000    3.1100
    3.1200    3.1300    3.1400    3.1500    3.1600    3.1700    3.1800    3.1900
    3.2000    3.2100    3.2200    3.2300    3.2400    3.2500    3.2600    3.2700
    3.2800    3.2900    3.3000    3.3100    3.3200    3.3300    3.3400    3.3500
    3.3600    3.3700    3.3800    3.3900    3.4000    3.4100    3.4200    3.4300
    3.4400    3.4500    3.4600    3.4700    3.4800    3.4900    3.5000    3.5100
    3.5200    3.5300    3.5400    3.5500    3.5600    3.5700    3.5800    3.5900
    3.6000    3.6100    3.6200    3.6300    3.6400    3.6500    3.6600    3.6700
    3.6800    3.6900    3.7000    3.7100    3.7200    3.7300    3.7400    3.7500
    3.7600    3.7700    3.7800    3.7900    3.8000    3.8100    3.8200    3.8300
    3.8400    3.8500    3.8600    3.8700    3.8800    3.8900    3.9000    3.9100
    3.9200    3.9300    3.9400    3.9500    3.9600    3.9700    3.9800    3.9900
    4.0000    4.0100    4.0200    4.0300    4.0400    4.0500    4.0600    4.0700
    4.0800    4.0900    4.1000    4.1100    4.1200    4.1300    4.1400    4.1500
    4.1600    4.1700    4.1800    4.1900    4.2000    4.2100    4.2200    4.2300
    4.2400    4.2500    4.2600    4.2700    4.2800    4.2900    4.3000    4.3100
    4.3200    4.3300    4.3400    4.3500    4.3600    4.3700    4.3800    4.3900
    4.4000    4.4100    4.4200    4.4300    4.4400    4.4500    4.4600    4.4700
    4.4800    4.4900    4.5000    4.5100    4.5200    4.5300    4.5400    4.5500
    4.5600    4.5700    4.5800    4.5900    4.6000    4.6100    4.6200    4.6300
    4.6400    4.6500    4.6600    4.6700    4.6800    4.6900    4.7000    4.7100
    4.7200    4.7300    4.7400    4.7500    4.7600    4.7700    4.7800    4.7900
    4.8000    4.8100    4.8200    4.8300    4.8400    4.8500    4.8600    4.8700
    4.8800    4.8900    4.9000    4.9100    4.9200    4.9300    4.9400    4.9500
    4.9600    4.9700    4.9800    4.9900    5.0000    5.0100    5.0200    5.0300
    5.0400    5.0500    5.0600    5.0700    5.0800    5.0900    5.1000    5.1100
    5.1200    5.1300    5.1400    5.1500    5.1600    5.1700    5.1800    5.1900
    5.2000    5.2100    5.2200    5.2300    5.2400    5.2500    5.2600    5.2700
    5.2800    5.2900    5.3000    5.3100    5.3200    5.3300    5.3400    5.3500
    5.3600    5.3700    5.3800    5.3900    5.4000    5.4100    5.4200    5.4300
    5.4400    5.4500    5.4600    5.4700    5.4800    5.4900    5.5000    5.5100
    5.5200    5.5300    5.5400    5.5500    5.5600    5.5700    5.5800    5.5900
    5.6000    5.6100    5.6200    5.6300    5.6400    5.6500    5.6600    5.6700
    5.6800    5.6900    5.7000    5.7100    5.7200    5.7300    5.7400    5.7500
    5.7600    5.7700    5.7800    5.7900    5.8000    5.8100    5.8200    5.8300
    5.8400    5.8500    5.8600    5.8700    5.8800    5.8900    5.9000    5.9100
    5.9200    5.9300    5.9400    5.9500    5.9600    5.9700    5.9800    5.9900
    6.0000    6.0100    6.0200    6.0300    6.0400    6.0500    6.0600    6.0700
    6.0800    6.0900    6.1000    6.1100    6.1200    6.1300    6.1400    6.1500
    6.1600    6.1700    6.1800    6.1900    6.2000    6.2100    6.2200    6.2300
    6.2400    6.2500    6.2600    6.2700    6.2800    6.2900    6.3000    6.3100
    6.3200    6.3300    6.3400    6.3500    6.3600    6.3700    6.3800    6.3900
    6.4000    6.4100    6.4200    6.4300    6.4400    6.4500    6.4600    6.4700
    6.4800    6.4900    6.5000    6.5100    6.5200    6.5300    6.5400    6.5500
    6.5600    6.5700    6.5800    6.5900    6.6000    6.6100    6.6200    6.6300
    6.6400    6.6500    6.6600    6.6700    6.6800    6.6900    6.7000    6.7100
    6.7200    6.7300    6.7400    6.7500    6.7600    6.7700    6.7800    6.7900
    6.8000    6.8100    6.8200    6.8300    6.8400    6.8500    6.8600    6.8700
    6.8800    6.8900    6.9000    6.9100    6.9200    6.9300    6.9400    6.9500
    6.9600    6.9700    6.9800    6.9900    7.0000    7.0100    7.0200    7.0300
    7.0400    7.0500    7.0600    7.0700    7.0800    7.0900    7.1000    7.1100
    7.1200    7.1300    7.1400    7.1500    7.1600    7.1700    7.1800    7.1900
    7.2000    7.2100    7.2200    7.2300    7.2400    7.2500    7.2600    7.2700
    7.2800    7.2900    7.3000    7.3100    7.3200    7.3300    7.3400    7.3500
    7.3600    7.3700    7.3800    7.3900    7.4000    7.4100    7.4200    7.4300
    7.4400    7.4500    7.4600    7.4700    7.4800    7.4900    7.5000    7.5100
    7.5200    7.5300    7.5400    7.5500    7.5600    7.5700    7.5800    7.5900
    7.6000    7.6100    7.6200    7.6300    7.6400    7.6500    7.6600    7.6700
    7.6800    7.6900    7.7000    7.7100    7.7200    7.7300    7.7400    7.7500
    7.7600    7.7700    7.7800    7.7900    7.8000    7.8100    7.8200    7.8300
    7.8400    7.8500    7.8600    7.8700    7.8800    7.8900    7.9000    7.9100
    7.9200    7.9300    7.9400    7.9500    7.9600    7.9700    7.9800    7.9900
    8.0000    8.0100    8.0200    8.0300    8.0400    8.0500    8.0600    8.0700
    8.0800    8.0900    8.1000    8.1100    8.1200    8.1300    8.1400    8.1500
    8.1600    8.1700    8.1800    8.1900    8.2000    8.2100    8.2200    8.2300
    8.2400    8.2500    8.2600    8.2700    8.2800    8.2900    8.3000    8.3100
    8.3200    8.3300    8.3400    8.3500    8.3600    8.3700    8.3800    8.3900
    8.4000    8.4100    8.4200    8.4300    8.4400    8.4500    8.4600    8.4700
    8.4800    8.4900    8.5000    8.5100    8.5200    8.5300    8.5400    8.5500
    8.5600    8.5700    8.5800    8.5900    8.6000    8.6100    8.6200    8.6300
    8.6400    8.6500    8.6600    8.6700    8.6800    8.6900    8.7000    8.7100
    8.7200    8.7300    8.7400    8.7500    8.7600    8.7700    8.7800    8.7900
    8.8000    8.8100    8.8200    8.8300    8.8400    8.8500    8.8600    8.8700
    8.8800    8.8900    8.9000    8.9100    8.9200    8.9300    8.9400    8.9500
    8.9600    8.9700    8.9800    8.9900    9.0000    9.0100    9.0200    9.0300
    9.0400    9.0500    9.0600    9.0700    9.0800    9.0900    9.1000    9.1100
    9.1200    9.1300    9.1400    9.1500    9.1600    9.1700    9.1800    9.1900
    9.2000    9.2100    9.2200    9.2300    9.2400    9.2500
   </PP_R>
   <PP_RAB type="real"  size=" 926" columns="8">
    0.0100    0.0100    0.0100    0.0100    0.0100    0.0100    0.0100    0.0100
    0.0100    0.0100    0.0100    0.0100    0.0100    0.0100    0.0100    0.0100
    0.0100    0.0100    0.0100    0.0100    0.0100    0.0100    0.0100    0.0100
    0.0100    0.0100    0.0100    0.0100    0.0100    0.0100    0.0100    0.0100
    0.0100    0.0100    0.0100    0.0100    0.0100    0.0100    0.0100    0.0100
    0.0100    0.0100    0.0100    0.0100    0.0100    0.0100    0.0100    0.0100
    0.0100    0.0100    0.0100    0.0100    0.0100    0.0100    0.0100    0.0100
    0.0100    0.0100    0.0100    0.0100    0.0100    0.0100    0.0100    0.0100
    0.0100    0.0100    0.0100    0.0100    0.0100    0.0100    0.0100    0.0100
    0.0100    0.0100    0.0100    0.0100    0.0100    0.0100    0.0100    0.0100
    0.0100    0.0100    0.0100    0.0100    0.0100    0.0100    0.0100    0.0100
    0.0100    0.0100    0.0100    0.0100    0.0100    0.0100    0.0100    0.0100
    0.0100    0.0100    0.0100    0.0100    0.0100    0.0100    0.0100    0.0100
    0.0100    0.0100    0.0100    0.0100    0.0100    0.0100    0.0100    0.0100
    0.0100    0.0100    0.0100    0.0100    0.0100    0.0100    0.0100    0.0100
    0.0100    0.0100    0.0100    0.0100    0.0100    0.0100    0.0100    0.0100
    0.0100    0.0100    0.0100    0.0100    0.0100    0.0100    0.0100    0.0100
    0.0100    0.0100    0.0100    0.0100    0.0100    0.0100    0.0100    0.0100
    0.0100    0.0100    0.0100    0.0100    0.0100    0.0100    0.0100    0.0100
    0.0100    0.0100    0.0100    0.0100    0.0100    0.0100    0.0100    0.0100
    0.0100    0.0100    0.0100    0.0100    0.0100    0.0100    0.0100    0.0100
    0.0100    0.0100    0.0100    0.0100    0.0100    0.0100    0.0100    0.0100
    0.0100    0.0100    0.0100    0.0100    0.0100    0.0100    0.0100    0.0100
    0.0100    0.0100    0.0100    0.0100    0.0100    0.0100    0.0100    0.0100
    0.0100    0.0100    0.0100    0.0100    0.0100    0.0100    0.0100    0.0100
    0.0100    0.0100    0.0100    0.0100    0.0100    0.0100    0.0100    0.0100
    0.0100    0.0100    0.0100    0.0100    0.0100    0.0100    0.0100    0.0100
    0.0100    0.0100    0.0100    0.0100    0.0100    0.0100    0.0100    0.0100
    0.0100    0.0100    0.0100    0.0100    0.0100    0.0100    0.0100    0.0100
    0.0100    0.0100    0.0100    0.0100    0.0100    0.0100    0.0100    0.0100
    0.0100    0.0100    0.0100    0.0100    0.0100    0.0100    0.0100    0.0100
    0.0100    0.0100    0.0100    0.0100    0.0100    0.0100    0.0100    0.0100
    0.0100    0.0100    0.0100    0.0100    0.0100    0.0100    0.0100    0.0100
    0.0100    0.0100    0.0100    0.0100    0.0100    0.0100    0.0100    0.0100
    0.0100    0.0100    0.0100    0.0100    0.0100    0.0100    0.0100    0.0100
    0.0100    0.0100    0.0100    0.0100    0.0100    0.0100    0.0100    0.0100
    0.0100    0.0100    0.0100    0.0100    0.0100    0.0100    0.0100    0.0100
    0.0100    0.0100    0.0100    0.0100    0.0100    0.0100    0.0100    0.0100
    0.0100    0.0100    0.0100    0.0100    0.0100    0.0100    0.0100    0.0100
    0.0100    0.0100    0.0100    0.0100    0.0100    0.0100    0.0100    0.0100
    0.0100    0.0100    0.0100    0.0100    0.0100    0.0100    0.0100    0.0100
    0.0100    0.0100    0.0100    0.0100    0.0100    0.0100    0.0100    0.0100
    0.0100    0.0100    0.0100    0.0100    0.0100    0.0100    0.0100    0.0100
    0.0100    0.0100    0.0100    0.0100    0.0100    0.0100    0.0100    0.0100
    0.0100    0.0100    0.0100    0.0100    0.0100    0.0100    0.0100    0.0100
    0.0100    0.0100    0.0100    0.0100    0.0100    0.0100    0.0100    0.0100
    0.0100    0.0100    0.0100    0.0100    0.0100    0.0100    0.0100    0.0100
    0.0100    0.0100    0.0100    0.0100    0.0100    0.0100    0.0100    0.0100
    0.0100    0.0100    0.0100    0.0100    0.0100    0.0100    0.0100    0.0100
    0.0100    0.0100    0.0100    0.0100    0.0100    0.0100    0.0100    0.0100
    0.0100    0.0100    0.0100    0.0100    0.0100    0.0100    0.0100    0.0100
    0.0100    0.0100    0.0100    0.0100    0.0100    0.0100    0.0100    0.0100
    0.0100    0.0100    0.0100    0.0100    0.0100    0.0100    0.0100    0.0100
    0.0100    0.0100    0.0100    0.0100    0.0100    0.0100    0.0100    0.0100
    0.0100    0.0100    0.0100    0.0100    0.0100    0.0100    0.0100    0.0100
    0.0100    0.0100    0.0100    0.0100    0.0100    0.0100    0.0100    0.0100
    0.0100    0.0100    0.0100    0.0100    0.0100    0.0100    0.0100    0.0100
    0.0100    0.0100    0.0100    0.0100    0.0100    0.0100    0.0100    0.0100
    0.0100    0.0100    0.0100    0.0100    0.0100    0.0100    0.0100    0.0100
    0.0100    0.0100    0.0100    0.0100    0.0100    0.0100    0.0100    0.0100
    0.0100    0.0100    0.0100    0.0100    0.0100    0.0100    0.0100    0.0100
    0.0100    0.0100    0.0100    0.0100    0.0100    0.0100    0.0100    0.0100
    0.0100    0.0100    0.0100    0.0100    0.0100    0.0100    0.0100    0.0100
    0.0100    0.0100    0.0100    0.0100    0.0100    0.0100    0.0100    0.0100
    0.0100    0.0100    0.0100    0.0100    0.0100    0.0100    0.0100    0.0100
    0.0100    0.0100    0.0100    0.0100    0.0100    0.0100    0.0100    0.0100
    0.0100    0.0100    0.0100    0.0100    0.0100    0.0100    0.0100    0.0100
    0.0100    0.0100    0.0100    0.0100    0.0100    0.0100    0.0100    0.0100
    0.0100    0.0100    0.0100    0.0100    0.0100    0.0100    0.0100    0.0100
    0.0100    0.0100    0.0100    0.0100    0.0100    0.0100    0.0100    0.0100
    0.0100    0.0100    0.0100    0.0100    0.0100    0.0100    0.0100    0.0100
    0.0100    0.0100    0.0100    0.0100    0.0100    0.0100    0.0100    0.0100
    0.0100    0.0100    0.0100    0.0100    0.0100    0.0100    0.0100    0.0100
    0.0100    0.0100    0.0100    0.0100    0.0100    0.0100    0.0100    0.0100
    0.0100    0.0100    0.0100    0.0100    0.0100    0.0100    0.0100    0.0100
    0.0100    0.0100    0.0100    0.0100    0.0100    0.0100    0.0100    0.0100
    0.0100    0.0100    0.0100    0.0100    0.0100    0.0100    0.0100    0.0100
    0.0100    0.0100    0.0100    0.0100    0.0100    0.0100    0.0100    0.0100
    0.0100    0.0100    0.0100    0.0100    0.0100    0.0100    0.0100    0.0100
    0.0100    0.0100    0.0100    0.0100    0.0100    0.0100    0.0100    0.0100
    0.0100    0.0100    0.0100    0.0100    0.0100    0.0100    0.0100    0.0100
    0.0100    0.0100    0.0100    0.0100    0.0100    0.0100    0.0100    0.0100
    0.0100    0.0100    0.0100    0.0100    0.0100    0.0100    0.0100    0.0100
    0.0100    0.0100    0.0100    0.0100    0.0100    0.0100    0.0100    0.0100
    0.0100    0.0100    0.0100    0.0100    0.0100    0.0100    0.0100    0.0100
    0.0100    0.0100    0.0100    0.0100    0.0100    0.0100    0.0100    0.0100
    0.0100    0.0100    0.0100    0.0100    0.0100    0.0100    0.0100    0.0100
    0.0100    0.0100    0.0100    0.0100    0.0100    0.0100    0.0100    0.0100
    0.0100    0.0100    0.0100    0.0100    0.0100    0.0100    0.0100    0.0100
    0.0100    0.0100    0.0100    0.0100    0.0100    0.0100    0.0100    0.0100
    0.0100    0.0100    0.0100    0.0100    0.0100    0.0100    0.0100    0.0100
    0.0100    0.0100    0.0100    0.0100    0.0100    0.0100    0.0100    0.0100
    0.0100    0.0100    0.0100    0.0100    0.0100    0.0100    0.0100    0.0100
    0.0100    0.0100    0.0100    0.0100    0.0100    0.0100    0.0100    0.0100
    0.0100    0.0100    0.0100    0.0100    0.0100    0.0100    0.0100    0.0100
    0.0100    0.0100    0.0100    0.0100    0.0100    0.0100    0.0100    0.0100
    0.0100    0.0100    0.0100    0.0100    0.0100    0.0100    0.0100    0.0100
    0.0100    0.0100    0.0100    0.0100    0.0100    0.0100    0.0100    0.0100
    0.0100    0.0100    0.0100    0.0100    0.0100    0.0100    0.0100    0.0100
    0.0100    0.0100    0.0100    0.0100    0.0100    0.0100    0.0100    0.0100
    0.0100    0.0100    0.0100    0.0100    0.0100    0.0100    0.0100    0.0100
    0.0100    0.0100    0.0100    0.0100    0.0100    0.0100    0.0100    0.0100
    0.0100    0.0100    0.0100    0.0100    0.0100    0.0100    0.0100    0.0100
    0.0100    0.0100    0.0100    0.0100    0.0100    0.0100    0.0100    0.0100
    0.0100    0.0100    0.0100    0.0100    0.0100    0.0100    0.0100    0.0100
    0.0100    0.0100    0.0100    0.0100    0.0100    0.0100    0.0100    0.0100
    0.0100    0.0100    0.0100    0.0100    0.0100    0.0100    0.0100    0.0100
    0.0100    0.0100    0.0100    0.0100    0.0100    0.0100    0.0100    0.0100
    0.0100    0.0100    0.0100    0.0100    0.0100    0.0100    0.0100    0.0100
    0.0100    0.0100    0.0100    0.0100    0.0100    0.0100    0.0100    0.0100
    0.0100    0.0100    0.0100    0.0100    0.0100    0.0100    0.0100    0.0100
    0.0100    0.0100    0.0100    0.0100    0.0100    0.0100    0.0100    0.0100
    0.0100    0.0100    0.0100    0.0100    0.0100    0.0100    0.0100    0.0100
    0.0100    0.0100    0.0100    0.0100    0.0100    0.0100    0.0100    0.0100
    0.0100    0.0100    0.0100    0.0100    0.0100    0.0100    0.0100    0.0100
    0.0100    0.0100    0.0100    0.0100    0.0100    0.0100
   </PP_RAB>
 </PP_MESH>
  <PP_LOCAL type="real"  size=" 926" columns="4">
   -2.3920654796E+01   -2.3917156868E+01   -2.3906981113E+01   -2.3890703038E+01
   -2.3869132647E+01   -2.3843105924E+01   -2.3813367890E+01   -2.3780524693E+01
   -2.3745042135E+01   -2.3707265831E+01   -2.3667446915E+01   -2.3625765730E+01
   -2.3582351003E+01   -2.3537294408E+01   -2.3490661258E+01   -2.3442498226E+01
   -2.3392838863E+01   -2.3341707547E+01   -2.3289122288E+01   -2.3235096753E+01
   -2.3179641696E+01   -2.3122766004E+01   -2.3064477442E+01   -2.3004783184E+01
   -2.2943690205E+01   -2.2881205555E+01   -2.2817336551E+01   -2.2752090919E+01
   -2.2685476884E+01   -2.2617503234E+01   -2.2548179355E+01   -2.2477515254E+01
   -2.2405521570E+01   -2.2332209567E+01   -2.2257591132E+01   -2.2181678762E+01
   -2.2104485546E+01   -2.2026025152E+01   -2.1946311807E+01   -2.1865360276E+01
   -2.1783185849E+01   -2.1699804317E+01   -2.1615231957E+01   -2.1529485517E+01
   -2.1442582195E+01   -2.1354539630E+01   -2.1265375885E+01   -2.1175109434E+01
   -2.1083759152E+01   -2.0991344308E+01   -2.0897884547E+01   -2.0803400064E+01
   -2.0707905614E+01   -2.0611487763E+01   -2.0513997658E+01   -2.0415575570E+01
   -2.0316233941E+01   -2.0215995748E+01   -2.0114883552E+01   -2.0012920246E+01
   -1.9910129051E+01   -1.9806533517E+01   -1.9702157520E+01   -1.9597025260E+01
   -1.9491161258E+01   -1.9384590360E+01   -1.9277337727E+01   -1.9169428838E+01
   -1.9060889489E+01   -1.8951745783E+01   -1.8842024133E+01   -1.8731751257E+01
   -1.8620954168E+01   -1.8509660176E+01   -1.8397896878E+01   -1.8285692153E+01
   -1.8173074151E+01   -1.8060071289E+01   -1.7946712240E+01   -1.7833025923E+01
   -1.7719041493E+01   -1.7604788328E+01   -1.7490296015E+01   -1.7375594342E+01
   -1.7260713277E+01   -1.7145682957E+01   -1.7030533671E+01   -1.6915295839E+01
   -1.6800000001E+01   -1.6684676793E+01   -1.6569356927E+01   -1.6454071174E+01
   -1.6338850341E+01   -1.6223725247E+01   -1.6108726705E+01   -1.5993885492E+01
   -1.5879232332E+01   -1.5764797864E+01   -1.5650612622E+01   -1.5536707007E+01
   -1.5423111262E+01   -1.5309855440E+01   -1.5196969382E+01   -1.5084482689E+01
   -1.4972424689E+01   -1.4860824412E+01   -1.4749710561E+01   -1.4639111479E+01
   -1.4529055125E+01   -1.4419569041E+01   -1.4310680321E+01   -1.4202415584E+01
   -1.4094800939E+01   -1.3987861961E+01   -1.3881623656E+01   -1.3776110429E+01
   -1.3671346059E+01   -1.3567353664E+01   -1.3464155673E+01   -1.3361773792E+01
   -1.3260228978E+01   -1.3159541406E+01   -1.3059730437E+01   -1.2960814593E+01
   -1.2862811522E+01   -1.2765737969E+01   -1.2669609749E+01   -1.2574441714E+01
   -1.2480247723E+01   -1.2387040615E+01   -1.2294832180E+01   -1.2203633210E+01
   -1.2113453200E+01   -1.2024298784E+01   -1.1936183390E+01   -1.1849113649E+01
   -1.1763051761E+01   -1.1678005877E+01   -1.1594035620E+01   -1.1511136072E+01
   -1.1429283022E+01   -1.1348479539E+01   -1.1268725209E+01   -1.1190014378E+01
   -1.1112341140E+01   -1.1035698147E+01   -1.0960076503E+01   -1.0885465780E+01
   -1.0811853973E+01   -1.0739227528E+01   -1.0667571276E+01   -1.0596868166E+01
   -1.0527099976E+01   -1.0458247994E+01   -1.0390293722E+01   -1.0323219436E+01
   -1.0257007915E+01   -1.0191642404E+01   -1.0127106642E+01   -1.0063384811E+01
   -1.0000461502E+01   -9.9383216954E+00   -9.8769507461E+00   -9.8163343756E+00
   -9.7564586697E+00   -9.6973100615E+00   -9.6388753158E+00   -9.5811415209E+00
   -9.5240960797E+00   -9.4677266991E+00   -9.4120213804E+00   -9.3569684107E+00
   -9.3025563541E+00   -9.2487740431E+00   -9.1956105708E+00   -9.1430552835E+00
   -9.0910977724E+00   -9.0397278673E+00   -8.9889356292E+00   -8.9387113436E+00
   -8.8890455145E+00   -8.8399288578E+00   -8.7913522953E+00   -8.7433069493E+00
   -8.6957841366E+00   -8.6487753635E+00   -8.6022723203E+00   -8.5562668762E+00
   -8.5107510749E+00   -8.4657171294E+00   -8.4211574179E+00   -8.3770644789E+00
   -8.3334310075E+00   -8.2902498509E+00   -8.2475140045E+00   -8.2052166081E+00
   -8.1633509422E+00   -8.1219104242E+00   -8.0808886053E+00   -8.0402791664E+00
   -8.0000759157E+00   -7.9602727848E+00   -7.9208638259E+00   -7.8818432087E+00
   -7.8432052179E+00   -7.8049442495E+00   -7.7670548090E+00   -7.7295315082E+00
   -7.6923690629E+00   -7.6555622901E+00   -7.6191061057E+00   -7.5829955224E+00
   -7.5472256470E+00   -7.5117916785E+00   -7.4766889056E+00   -7.4419127050E+00
   -7.4074585390E+00   -7.3733219537E+00   -7.3394985772E+00   -7.3059841173E+00
   -7.2727743601E+00   -7.2398651680E+00   -7.2072524782E+00   -7.1749323005E+00
   -7.1429007164E+00   -7.1111538770E+00   -7.0796880014E+00   -7.0484993756E+00
   -7.0175843509E+00   -6.9869393420E+00   -6.9565608264E+00   -6.9264453424E+00
   -6.8965894881E+00   -6.8669899200E+00   -6.8376433520E+00   -6.8085465536E+00
   -6.7796963493E+00   -6.7510896173E+00   -6.7227232881E+00   -6.6945943437E+00
   -6.6666998165E+00   -6.6390367880E+00   -6.6116023880E+00   -6.5843937937E+00
   -6.5574082285E+00   -6.5306429611E+00   -6.5040953046E+00   -6.4777626159E+00
   -6.4516422942E+00   -6.4257317807E+00   -6.4000285575E+00   -6.3745301467E+00
   -6.3492341100E+00   -6.3241380475E+00   -6.2992395972E+00   -6.2745364339E+00
   -6.2500262690E+00   -6.2257068495E+00   -6.2015759573E+00   -6.1776314085E+00
   -6.1538710529E+00   -6.1302927732E+00   -6.1068944845E+00   -6.0836741334E+00
   -6.0606296979E+00   -6.0377591864E+00   -6.0150606373E+00   -5.9925321182E+00
   -5.9701717258E+00   -5.9479775849E+00   -5.9259478483E+00   -5.9040806959E+00
   -5.8823743344E+00   -5.8608269969E+00   -5.8394369420E+00   -5.8182024539E+00
   -5.7971218417E+00   -5.7761934387E+00   -5.7554156023E+00   -5.7347867135E+00
   -5.7143051763E+00   -5.6939694176E+00   -5.6737778864E+00   -5.6537290538E+00
   -5.6338214124E+00   -5.6140534759E+00   -5.5944237788E+00   -5.5749308761E+00
   -5.5555733428E+00   -5.5363497735E+00   -5.5172587825E+00   -5.4982990030E+00
   -5.4794690867E+00   -5.4607677041E+00   -5.4421935435E+00   -5.4237453111E+00
   -5.4054217306E+00   -5.3872215428E+00   -5.3691435054E+00   -5.3511863930E+00
   -5.3333489961E+00   -5.3156301217E+00   -5.2980285922E+00   -5.2805432458E+00
   -5.2631729360E+00   -5.2459165312E+00   -5.2287729147E+00   -5.2117409843E+00
   -5.1948196520E+00   -5.1780078442E+00   -5.1613045009E+00   -5.1447085758E+00
   -5.1282190359E+00   -5.1118348617E+00   -5.0955550464E+00   -5.0793785960E+00
   -5.0633045293E+00   -5.0473318774E+00   -5.0314596833E+00   -5.0156870025E+00
   -5.0000129019E+00   -4.9844364602E+00   -4.9689567675E+00   -4.9535729252E+00
   -4.9382840458E+00   -4.9230892527E+00   -4.9079876800E+00   -4.8929784725E+00
   -4.8780607855E+00   -4.8632337842E+00   -4.8484966444E+00   -4.8338485515E+00
   -4.8192887009E+00   -4.8048162976E+00   -4.7904305561E+00   -4.7761307004E+00
   -4.7619159635E+00   -4.7477855878E+00   -4.7337388245E+00   -4.7197749336E+00
   -4.7058931838E+00   -4.6920928526E+00   -4.6783732257E+00   -4.6647335972E+00
   -4.6511732695E+00   -4.6376915530E+00   -4.6242877661E+00   -4.6109612350E+00
   -4.5977112937E+00   -4.5845372838E+00   -4.5714385545E+00   -4.5584144624E+00
   -4.5454643713E+00   -4.5325876523E+00   -4.5197836837E+00   -4.5070518506E+00
   -4.4943915451E+00   -4.4818021661E+00   -4.4692831194E+00   -4.4568338170E+00
   -4.4444536779E+00   -4.4321421273E+00   -4.4198985967E+00   -4.4077225240E+00
   -4.3956133532E+00   -4.3835705344E+00   -4.3715935238E+00   -4.3596817833E+00
   -4.3478347810E+00   -4.3360519904E+00   -4.3243328910E+00   -4.3126769677E+00
   -4.3010837109E+00   -4.2895526168E+00   -4.2780831865E+00   -4.2666749270E+00
   -4.2553273499E+00   -4.2440399726E+00   -4.2328123171E+00   -4.2216439108E+00
   -4.2105342859E+00   -4.1994829795E+00   -4.1884895336E+00   -4.1775534951E+00
   -4.1666744154E+00   -4.1558518507E+00   -4.1450853617E+00   -4.1343745137E+00
   -4.1237188766E+00   -4.1131180245E+00   -4.1025715360E+00   -4.0920789940E+00
   -4.0816399856E+00   -4.0712541021E+00   -4.0609209392E+00   -4.0506400963E+00
   -4.0404111770E+00   -4.0302337891E+00   -4.0201075440E+00   -4.0100320573E+00
   -4.0000069482E+00   -3.9900318399E+00   -3.9801063592E+00   -3.9702301367E+00
   -3.9604028066E+00   -3.9506240067E+00   -3.9408933784E+00   -3.9312105666E+00
   -3.9215752198E+00   -3.9119869899E+00   -3.9024455319E+00   -3.8929505046E+00
   -3.8835015698E+00   -3.8740983927E+00   -3.8647406418E+00   -3.8554279887E+00
   -3.8461601081E+00   -3.8369366779E+00   -3.8277573792E+00   -3.8186218958E+00
   -3.8095299149E+00   -3.8004811265E+00   -3.7914752235E+00   -3.7825119017E+00
   -3.7735908599E+00   -3.7647117997E+00   -3.7558744252E+00   -3.7470784438E+00
   -3.7383235653E+00   -3.7296095021E+00   -3.7209359696E+00   -3.7123026857E+00