Nb    ONCVPSP-3.3.0  r_core=   1.50879   1.40458   1.40458
     41.0000     13.0000      220408    zatom,zion,pspd
     8       2   2     4   600     0    pspcod,pspxc,lmax,lloc,mmax,r2well
  5.99000000  0.00000000  0.00000000    rchrg fchrg qchrg
     2     2     2     0     0    nproj
     1     1           extension_switch
   0                         1.2971887103558D+01  1.3572582233973D+00
     1  0.0000000000000D+00  1.3700657275351D-10 -3.4445288288332D-10
     2  1.0000000000000D-02  5.0742737694390D-02 -1.5390933052962D-02
     3  2.0000000000000D-02  1.0146190096370D-01 -3.0816463892418D-02
     4  3.0000000000000D-02  1.5213351608962D-01 -4.6310156166887D-02
     5  4.0000000000000D-02  2.0273281506113D-01 -6.1903515891253D-02
     6  5.0000000000000D-02  2.5323384912748D-01 -7.7624989148148D-02
     7  6.0000000000000D-02  3.0360911509309D-01 -9.3498991366473D-02
     8  7.0000000000000D-02  3.5382919844010D-01 -1.0954497829674D-01
     9  8.0000000000000D-02  4.0386243722734D-01 -1.2577656845848D-01
    10  9.0000000000000D-02  4.5367461054502D-01 -1.4220072640893D-01
    11  1.0000000000000D-01  5.0322865510390D-01 -1.5881701567752D-01
    12  1.1000000000000D-01  5.5248441330709D-01 -1.7561692963072D-01
    13  1.2000000000000D-01  6.0139841589417D-01 -1.9258330788097D-01
    14  1.3000000000000D-01  6.4992370196229D-01 -2.0968984513597D-01
    15  1.4000000000000D-01  6.9800967885977D-01 -2.2690069860559D-01
    16  1.5000000000000D-01  7.4560202411649D-01 -2.4417019924929D-01
    17  1.6000000000000D-01  7.9264263122452D-01 -2.6144267126213D-01
    18  1.7000000000000D-01  8.3906960071462D-01 -2.7865236326971D-01
    19  1.8000000000000D-01  8.8481727759197D-01 -2.9572349373785D-01
    20  1.9000000000000D-01  9.2981633580074D-01 -3.1257041210917D-01
    21  2.0000000000000D-01  9.7399390998481D-01 -3.2909787616224D-01
    22  2.1000000000000D-01  1.0172737744043D+00 -3.4520144505973D-01
    23  2.2000000000000D-01  1.0595765684572D+00 -3.6076798651476D-01
    24  2.3000000000000D-01  1.1008200678457D+00 -3.7567629547039D-01
    25  2.4000000000000D-01  1.1409195000219D+00 -3.8979782066236D-01
    26  2.5000000000000D-01  1.1797879021481D+00 -4.0299749442846D-01
    27  2.6000000000000D-01  1.2173365194206D+00 -4.1513466014806D-01
    28  2.7000000000000D-01  1.2534752412279D+00 -4.2606409074930D-01
    29  2.8000000000000D-01  1.2881130722604D+00 -4.3563709081915D-01
    30  2.9000000000000D-01  1.3211586353458D+00 -4.4370267399830D-01
    31  3.0000000000000D-01  1.3525207024710D+00 -4.5010880654935D-01
    32  3.1000000000000D-01  1.3821087501580D+00 -4.5470370725699D-01
    33  3.2000000000000D-01  1.4098335351002D+00 -4.5733719316273D-01
    34  3.3000000000000D-01  1.4356076857289D+00 -4.5786206005835D-01
    35  3.4000000000000D-01  1.4593463051814D+00 -4.5613548616947D-01
    36  3.5000000000000D-01  1.4809675809746D+00 -4.5202044705691D-01
    37  3.6000000000000D-01  1.5003933965565D+00 -4.4538712945570D-01
    38  3.7000000000000D-01  1.5175499398156D+00 -4.3611433156225D-01
    39  3.8000000000000D-01  1.5323683035734D+00 -4.2409083717283D-01
    40  3.9000000000000D-01  1.5447850730717D+00 -4.0921675107534D-01
    41  4.0000000000000D-01  1.5547428954896D+00 -3.9140478320027D-01
    42  4.1000000000000D-01  1.5621910265939D+00 -3.7058146924980D-01
    43  4.2000000000000D-01  1.5670858497316D+00 -3.4668831584408D-01
    44  4.3000000000000D-01  1.5693913625211D+00 -3.1968285865068D-01
    45  4.4000000000000D-01  1.5690796267849D+00 -2.8953962249553D-01
    46  4.5000000000000D-01  1.5661311774924D+00 -2.5625097308872D-01
    47  4.6000000000000D-01  1.5605353867425D+00 -2.1982785073138D-01
    48  4.7000000000000D-01  1.5522907791145D+00 -1.8030037719843D-01
    49  4.8000000000000D-01  1.5414052950472D+00 -1.3771832790835D-01
    50  4.9000000000000D-01  1.5278964992680D+00 -9.2151462490303D-02
    51  5.0000000000000D-01  1.5117917316853D+00 -4.3689707933881D-02
    52  5.1000000000000D-01  1.4931281985747D+00  7.5568103513698D-03
    53  5.2000000000000D-01  1.4719530023283D+00  6.1457893038762D-02
    54  5.3000000000000D-01  1.4483231084964D+00  1.1786354917094D-01
    55  5.4000000000000D-01  1.4223052493231D+00  1.7660443716310D-01
    56  5.5000000000000D-01  1.3939757634665D+00  2.3749246413642D-01
    57  5.6000000000000D-01  1.3634203720857D+00  3.0032154185965D-01
    58  5.7000000000000D-01  1.3307338919760D+00  3.6486849623550D-01
    59  5.8000000000000D-01  1.2960198869331D+00  4.3089412592858D-01
    60  5.9000000000000D-01  1.2593902590162D+00  4.9814440441519D-01
    61  6.0000000000000D-01  1.2209647818718D+00  5.6635181844063D-01
    62  6.1000000000000D-01  1.1808705787433D+00  6.3523683462182D-01
    63  6.2000000000000D-01  1.1392415482554D+00  7.0450948473431D-01
    64  6.3000000000000D-01  1.0962177414897D+00  7.7387105908763D-01
    65  6.4000000000000D-01  1.0519446942807D+00  8.4301589633671D-01
    66  6.5000000000000D-01  1.0065727190421D+00  9.1163325709943D-01
    67  6.6000000000000D-01  9.6025616078059D-01  9.7940926787499D-01
    68  6.7000000000000D-01  9.1315262226775D-01  1.0460289209831D+00
    69  6.8000000000000D-01  8.6542216361824D-01  1.1111781155814D+00
    70  6.9000000000000D-01  8.1722648175279D-01  1.1745457242789D+00
    71  7.0000000000000D-01  7.6872807541782D-01  1.2358256694509D+00
    72  7.1000000000000D-01  7.2008940157772D-01  1.2947189930740D+00
    73  7.2000000000000D-01  6.7147202909479D-01  1.3509359037601D+00
    74  7.3000000000000D-01  6.2303579566166D-01  1.4041977846581D+00
    75  7.4000000000000D-01  5.7493797395272D-01  1.4542391460291D+00
    76  7.5000000000000D-01  5.2733245291383D-01  1.5008095065752D+00
    77  7.6000000000000D-01  4.8036894001239D-01  1.5436751880208D+00
    78  7.7000000000000D-01  4.3419219012505D-01  1.5826210080015D+00
    79  7.8000000000000D-01  3.8894126654794D-01  1.6174518570010D+00
    80  7.9000000000000D-01  3.4474883937584D-01  1.6479941459032D+00
    81  8.0000000000000D-01  3.0174052621455D-01  1.6740971116624D+00
    82  8.1000000000000D-01  2.6003427986654D-01  1.6956339696609D+00
    83  8.2000000000000D-01  2.1973982726748D-01  1.7125029024828D+00
    84  8.3000000000000D-01  1.8095816355231D-01  1.7246278761028D+00
    85  8.4000000000000D-01  1.4378110469900D-01  1.7319592758344D+00
    86  8.5000000000000D-01  1.0829090173854D-01  1.7344743558092D+00
    87  8.6000000000000D-01  7.4559919036454D-02  1.7321774972434D+00
    88  8.7000000000000D-01  4.2650378647162D-02  1.7251002722851D+00
    89  8.8000000000000D-01  1.2614172223725D-02  1.7133013118019D+00
    90  8.9000000000000D-01 -1.5507258564300D-02  1.6968659770582D+00
    91  9.0000000000000D-01 -4.1682972687506D-02  1.6759058368244D+00
    92  9.1000000000000D-01 -6.5892511606991D-02  1.6505579530421D+00
    93  9.2000000000000D-01 -8.8125812969623D-02  1.6209839797275D+00
    94  9.3000000000000D-01 -1.0838305732272D-01  1.5873690813090D+00
    95  9.4000000000000D-01 -1.2667444953182D-01  1.5499206780570D+00
    96  9.5000000000000D-01 -1.4301993707571D-01  1.5088670276541D+00
    97  9.6000000000000D-01 -1.5744886786011D-01  1.4644556532612D+00
    98  9.7000000000000D-01 -1.6999959063074D-01  1.4169516296423D+00
    99  9.8000000000000D-01 -1.8071900147490D-01  1.3666357400182D+00
   100  9.9000000000000D-01 -1.8966204027304D-01  1.3138025172949D+00
   101  1.0000000000000D+00 -1.9689114128972D-01  1.2587581841560D+00
   102  1.0100000000000D+00 -2.0247564239410D-01  1.2018185072422D+00
   103  1.0200000000000D+00 -2.0649115763739D-01  1.1433065811841D+00
   104  1.0300000000000D+00 -2.0901891811742D-01  1.0835505586771D+00
   105  1.0400000000000D+00 -2.1014508621023D-01  1.0228813430452D+00
   106  1.0500000000000D+00 -2.0996004834653D-01  9.6163025981559D-01
   107  1.0600000000000D+00 -2.0855769156260D-01  9.0012672379658D-01
   108  1.0700000000000D+00 -2.0603466905333D-01  8.3869591789002D-01
   109  1.0800000000000D+00 -2.0248965990039D-01  7.7765649950056D-01
   110  1.0900000000000D+00 -1.9802262804779D-01  7.1731834986053D-01
   111  1.1000000000000D+00 -1.9273408543057D-01  6.5798038084169D-01
   112  1.1100000000000D+00 -1.8672436400384D-01  5.9992841314403D-01
   113  1.1200000000000D+00 -1.8009290112517D-01  5.4343313857809D-01
   114  1.1300000000000D+00 -1.7293754249865D-01  4.8874817822116D-01
   115  1.1400000000000D+00 -1.6535386650699D-01  4.3610824680428D-01
   116  1.1500000000000D+00 -1.5743453350975D-01  3.8572743276951D-01
   117  1.1600000000000D+00 -1.4926866316627D-01  3.3779760156939D-01
   118  1.1700000000000D+00 -1.4094124250270D-01  2.9248692858863D-01
   119  1.1800000000000D+00 -1.3253256693366D-01  2.4993856629532D-01
   120  1.1900000000000D+00 -1.2411771614348D-01  2.1026944916381D-01
   121  1.2000000000000D+00 -1.1576606605263D-01  1.7356923759299D-01
   122  1.2100000000000D+00 -1.0754083770294D-01  1.3989940073597D-01
   123  1.2200000000000D+00 -9.9498682736522D-02  1.0929243287639D-01
   124  1.2300000000000D+00 -9.1689310038455D-02  8.1751224304590D-02
   125  1.2400000000000D+00 -8.4155130981577D-02  5.7248471553369D-02
   126  1.2500000000000D+00 -7.6931034030957D-02  3.5726678539896D-02
   127  1.2600000000000D+00 -7.0043899107504D-02  1.7096791821547D-02
   128  1.2700000000000D+00 -6.3512664438536D-02  1.2395782928087D-03
   129  1.2800000000000D+00 -5.7349411247413D-02 -1.1987797546649D-02
   130  1.2900000000000D+00 -5.1560729010629D-02 -2.2744510068508D-02
   131  1.3000000000000D+00 -4.6148847267788D-02 -3.1200364431188D-02
   132  1.3100000000000D+00 -4.1111815147129D-02 -3.7535276467142D-02
   133  1.3200000000000D+00 -3.6444008009847D-02 -4.1937068492304D-02
   134  1.3300000000000D+00 -3.2136600648770D-02 -4.4599500771959D-02
   135  1.3400000000000D+00 -2.8178064585536D-02 -4.5720231599985D-02
   136  1.3500000000000D+00 -2.4554669088506D-02 -4.5498798322917D-02
   137  1.3600000000000D+00 -2.1250988946026D-02 -4.4134593872039D-02
   138  1.3700000000000D+00 -1.8250412065995D-02 -4.1824865498139D-02
   139  1.3800000000000D+00 -1.5535641775543D-02 -3.8762752710093D-02
   140  1.3900000000000D+00 -1.3089188936405D-02 -3.5135380652048D-02
   141  1.4000000000000D+00 -1.0893848693946D-02 -3.1122026111355D-02
   142  1.4100000000000D+00 -8.9331575558023D-03 -2.6892370303248D-02
   143  1.4200000000000D+00 -7.1918259656666D-03 -2.2604854426394D-02
   144  1.4300000000000D+00 -5.6561422466511D-03 -1.8405151505937D-02
   145  1.4400000000000D+00 -4.3143442919426D-03 -1.4424766396576D-02
   146  1.4500000000000D+00 -3.1569546367903D-03 -1.0779778251885D-02
   147  1.4600000000000D+00 -2.1773794710432D-03 -7.5716699510150D-03
   148  1.4700000000000D+00 -1.3709384988710D-03 -4.8785521451909D-03
   149  1.4800000000000D+00 -7.3489239114435D-04 -2.7458728056010D-03
   150  1.4900000000000D+00 -2.7682065752681D-04 -1.2735603372482D-03
   151  1.5000000000000D+00 -1.7807460129456D-06 -5.2480146413221D-04
   152  1.5100000000000D+00  9.3181855287167D-05 -2.2445810509587D-04
   153  1.5200000000000D+00  4.8700683585584D-05 -6.1904051969412D-05
   154  1.5300000000000D+00 -9.7429240038084D-06  9.3511082017865D-06
   155  1.5400000000000D+00 -1.0433950690484D-05  8.2185392208015D-06
   156  1.5500000000000D+00  2.5080002804089D-06 -2.8097017332907D-06
   157  1.5600000000000D+00  1.7267279273719D-06 -1.7975403483148D-06
   158  1.5700000000000D+00 -2.3565053310423D-07  6.4827597080883D-07
   159  1.5800000000000D+00 -1.0071641956941D-07  2.7707144903368D-07
   160  1.5900000000000D+00  0.0000000000000D+00  0.0000000000000D+00
   161  1.6000000000000D+00  0.0000000000000D+00  0.0000000000000D+00
   162  1.6100000000000D+00  0.0000000000000D+00  0.0000000000000D+00
   163  1.6200000000000D+00  0.0000000000000D+00  0.0000000000000D+00
   164  1.6300000000000D+00  0.0000000000000D+00  0.0000000000000D+00
   165  1.6400000000000D+00  0.0000000000000D+00  0.0000000000000D+00
   166  1.6500000000000D+00  0.0000000000000D+00  0.0000000000000D+00
   167  1.6600000000000D+00  0.0000000000000D+00  0.0000000000000D+00
   168  1.6700000000000D+00  0.0000000000000D+00  0.0000000000000D+00
   169  1.6800000000000D+00  0.0000000000000D+00  0.0000000000000D+00
   170  1.6900000000000D+00  0.0000000000000D+00  0.0000000000000D+00
   171  1.7000000000000D+00  0.0000000000000D+00  0.0000000000000D+00
   172  1.7100000000000D+00  0.0000000000000D+00  0.0000000000000D+00
   173  1.7200000000000D+00  0.0000000000000D+00  0.0000000000000D+00
   174  1.7300000000000D+00  0.0000000000000D+00  0.0000000000000D+00
   175  1.7400000000000D+00  0.0000000000000D+00  0.0000000000000D+00
   176  1.7500000000000D+00  0.0000000000000D+00  0.0000000000000D+00
   177  1.7600000000000D+00  0.0000000000000D+00  0.0000000000000D+00
   178  1.7700000000000D+00  0.0000000000000D+00  0.0000000000000D+00
   179  1.7800000000000D+00  0.0000000000000D+00  0.0000000000000D+00
   180  1.7900000000000D+00  0.0000000000000D+00  0.0000000000000D+00
   181  1.8000000000000D+00  0.0000000000000D+00  0.0000000000000D+00
   182  1.8100000000000D+00  0.0000000000000D+00  0.0000000000000D+00
   183  1.8200000000000D+00  0.0000000000000D+00  0.0000000000000D+00
   184  1.8300000000000D+00  0.0000000000000D+00  0.0000000000000D+00
   185  1.8400000000000D+00  0.0000000000000D+00  0.0000000000000D+00
   186  1.8500000000000D+00  0.0000000000000D+00  0.0000000000000D+00
   187  1.8600000000000D+00  0.0000000000000D+00  0.0000000000000D+00
   188  1.8700000000000D+00  0.0000000000000D+00  0.0000000000000D+00
   189  1.8800000000000D+00  0.0000000000000D+00  0.0000000000000D+00
   190  1.8900000000000D+00  0.0000000000000D+00  0.0000000000000D+00
   191  1.9000000000000D+00  0.0000000000000D+00  0.0000000000000D+00
   192  1.9100000000000D+00  0.0000000000000D+00  0.0000000000000D+00
   193  1.9200000000000D+00  0.0000000000000D+00  0.0000000000000D+00
   194  1.9300000000000D+00  0.0000000000000D+00  0.0000000000000D+00
   195  1.9400000000000D+00  0.0000000000000D+00  0.0000000000000D+00
   196  1.9500000000000D+00  0.0000000000000D+00  0.0000000000000D+00
   197  1.9600000000000D+00  0.0000000000000D+00  0.0000000000000D+00
   198  1.9700000000000D+00  0.0000000000000D+00  0.0000000000000D+00
   199  1.9800000000000D+00  0.0000000000000D+00  0.0000000000000D+00
   200  1.9900000000000D+00  0.0000000000000D+00  0.0000000000000D+00
   201  2.0000000000000D+00  0.0000000000000D+00  0.0000000000000D+00
   202  2.0100000000000D+00  0.0000000000000D+00  0.0000000000000D+00
   203  2.0200000000000D+00  0.0000000000000D+00  0.0000000000000D+00
   204  2.0300000000000D+00  0.0000000000000D+00  0.0000000000000D+00
   205  2.0400000000000D+00  0.0000000000000D+00  0.0000000000000D+00
   206  2.0500000000000D+00  0.0000000000000D+00  0.0000000000000D+00
   207  2.0600000000000D+00  0.0000000000000D+00  0.0000000000000D+00
   208  2.0700000000000D+00  0.0000000000000D+00  0.0000000000000D+00
   209  2.0800000000000D+00  0.0000000000000D+00  0.0000000000000D+00
   210  2.0900000000000D+00  0.0000000000000D+00  0.0000000000000D+00
   211  2.1000000000000D+00  0.0000000000000D+00  0.0000000000000D+00
   212  2.1100000000000D+00  0.0000000000000D+00  0.0000000000000D+00
   213  2.1200000000000D+00  0.0000000000000D+00  0.0000000000000D+00
   214  2.1300000000000D+00  0.0000000000000D+00  0.0000000000000D+00
   215  2.1400000000000D+00  0.0000000000000D+00  0.0000000000000D+00
   216  2.1500000000000D+00  0.0000000000000D+00  0.0000000000000D+00
   217  2.1600000000000D+00  0.0000000000000D+00  0.0000000000000D+00
   218  2.1700000000000D+00  0.0000000000000D+00  0.0000000000000D+00
   219  2.1800000000000D+00  0.0000000000000D+00  0.0000000000000D+00
   220  2.1900000000000D+00  0.0000000000000D+00  0.0000000000000D+00
   221  2.2000000000000D+00  0.0000000000000D+00  0.0000000000000D+00
   222  2.2100000000000D+00  0.0000000000000D+00  0.0000000000000D+00
   223  2.2200000000000D+00  0.0000000000000D+00  0.0000000000000D+00
   224  2.2300000000000D+00  0.0000000000000D+00  0.0000000000000D+00
   225  2.2400000000000D+00  0.0000000000000D+00  0.0000000000000D+00
   226  2.2500000000000D+00  0.0000000000000D+00  0.0000000000000D+00
   227  2.2600000000000D+00  0.0000000000000D+00  0.0000000000000D+00
   228  2.2700000000000D+00  0.0000000000000D+00  0.0000000000000D+00
   229  2.2800000000000D+00  0.0000000000000D+00  0.0000000000000D+00
   230  2.2900000000000D+00  0.0000000000000D+00  0.0000000000000D+00
   231  2.3000000000000D+00  0.0000000000000D+00  0.0000000000000D+00
   232  2.3100000000000D+00  0.0000000000000D+00  0.0000000000000D+00
   233  2.3200000000000D+00  0.0000000000000D+00  0.0000000000000D+00
   234  2.3300000000000D+00  0.0000000000000D+00  0.0000000000000D+00
   235  2.3400000000000D+00  0.0000000000000D+00  0.0000000000000D+00
   236  2.3500000000000D+00  0.0000000000000D+00  0.0000000000000D+00
   237  2.3600000000000D+00  0.0000000000000D+00  0.0000000000000D+00
   238  2.3700000000000D+00  0.0000000000000D+00  0.0000000000000D+00
   239  2.3800000000000D+00  0.0000000000000D+00  0.0000000000000D+00
   240  2.3900000000000D+00  0.0000000000000D+00  0.0000000000000D+00
   241  2.4000000000000D+00  0.0000000000000D+00  0.0000000000000D+00
   242  2.4100000000000D+00  0.0000000000000D+00  0.0000000000000D+00
   243  2.4200000000000D+00  0.0000000000000D+00  0.0000000000000D+00
   244  2.4300000000000D+00  0.0000000000000D+00  0.0000000000000D+00
   245  2.4400000000000D+00  0.0000000000000D+00  0.0000000000000D+00
   246  2.4500000000000D+00  0.0000000000000D+00  0.0000000000000D+00
   247  2.4600000000000D+00  0.0000000000000D+00  0.0000000000000D+00
   248  2.4700000000000D+00  0.0000000000000D+00  0.0000000000000D+00
   249  2.4800000000000D+00  0.0000000000000D+00  0.0000000000000D+00
   250  2.4900000000000D+00  0.0000000000000D+00  0.0000000000000D+00
   251  2.5000000000000D+00  0.0000000000000D+00  0.0000000000000D+00
   252  2.5100000000000D+00  0.0000000000000D+00  0.0000000000000D+00
   253  2.5200000000000D+00  0.0000000000000D+00  0.0000000000000D+00
   254  2.5300000000000D+00  0.0000000000000D+00  0.0000000000000D+00
   255  2.5400000000000D+00  0.0000000000000D+00  0.0000000000000D+00
   256  2.5500000000000D+00  0.0000000000000D+00  0.0000000000000D+00
   257  2.5600000000000D+00  0.0000000000000D+00  0.0000000000000D+00
   258  2.5700000000000D+00  0.0000000000000D+00  0.0000000000000D+00
   259  2.5800000000000D+00  0.0000000000000D+00  0.0000000000000D+00
   260  2.5900000000000D+00  0.0000000000000D+00  0.0000000000000D+00
   261  2.6000000000000D+00  0.0000000000000D+00  0.0000000000000D+00
   262  2.6100000000000D+00  0.0000000000000D+00  0.0000000000000D+00
   263  2.6200000000000D+00  0.0000000000000D+00  0.0000000000000D+00
   264  2.6300000000000D+00  0.0000000000000D+00  0.0000000000000D+00
   265  2.6400000000000D+00  0.0000000000000D+00  0.0000000000000D+00
   266  2.6500000000000D+00  0.0000000000000D+00  0.0000000000000D+00
   267  2.6600000000000D+00  0.0000000000000D+00  0.0000000000000D+00
   268  2.6700000000000D+00  0.0000000000000D+00  0.0000000000000D+00
   269  2.6800000000000D+00  0.0000000000000D+00  0.0000000000000D+00
   270  2.6900000000000D+00  0.0000000000000D+00  0.0000000000000D+00
   271  2.7000000000000D+00  0.0000000000000D+00  0.0000000000000D+00
   272  2.7100000000000D+00  0.0000000000000D+00  0.0000000000000D+00
   273  2.7200000000000D+00  0.0000000000000D+00  0.0000000000000D+00
   274  2.7300000000000D+00  0.0000000000000D+00  0.0000000000000D+00
   275  2.7400000000000D+00  0.0000000000000D+00  0.0000000000000D+00
   276  2.7500000000000D+00  0.0000000000000D+00  0.0000000000000D+00
   277  2.7600000000000D+00  0.0000000000000D+00  0.0000000000000D+00
   278  2.7700000000000D+00  0.0000000000000D+00  0.0000000000000D+00
   279  2.7800000000000D+00  0.0000000000000D+00  0.0000000000000D+00
   280  2.7900000000000D+00  0.0000000000000D+00  0.0000000000000D+00
   281  2.8000000000000D+00  0.0000000000000D+00  0.0000000000000D+00
   282  2.8100000000000D+00  0.0000000000000D+00  0.0000000000000D+00
   283  2.8200000000000D+00  0.0000000000000D+00  0.0000000000000D+00
   284  2.8300000000000D+00  0.0000000000000D+00  0.0000000000000D+00
   285  2.8400000000000D+00  0.0000000000000D+00  0.0000000000000D+00
   286  2.8500000000000D+00  0.0000000000000D+00  0.0000000000000D+00
   287  2.8600000000000D+00  0.0000000000000D+00  0.0000000000000D+00
   288  2.8700000000000D+00  0.0000000000000D+00  0.0000000000000D+00
   289  2.8800000000000D+00  0.0000000000000D+00  0.0000000000000D+00
   290  2.8900000000000D+00  0.0000000000000D+00  0.0000000000000D+00
   291  2.9000000000000D+00  0.0000000000000D+00  0.0000000000000D+00
   292  2.9100000000000D+00  0.0000000000000D+00  0.0000000000000D+00
   293  2.9200000000000D+00  0.0000000000000D+00  0.0000000000000D+00
   294  2.9300000000000D+00  0.0000000000000D+00  0.0000000000000D+00
   295  2.9400000000000D+00  0.0000000000000D+00  0.0000000000000D+00
   296  2.9500000000000D+00  0.0000000000000D+00  0.0000000000000D+00
   297  2.9600000000000D+00  0.0000000000000D+00  0.0000000000000D+00
   298  2.9700000000000D+00  0.0000000000000D+00  0.0000000000000D+00
   299  2.9800000000000D+00  0.0000000000000D+00  0.0000000000000D+00
   300  2.9900000000000D+00  0.0000000000000D+00  0.0000000000000D+00
   301  3.0000000000000D+00  0.0000000000000D+00  0.0000000000000D+00
   302  3.0100000000000D+00  0.0000000000000D+00  0.0000000000000D+00
   303  3.0200000000000D+00  0.0000000000000D+00  0.0000000000000D+00
   304  3.0300000000000D+00  0.0000000000000D+00  0.0000000000000D+00
   305  3.0400000000000D+00  0.0000000000000D+00  0.0000000000000D+00
   306  3.0500000000000D+00  0.0000000000000D+00  0.0000000000000D+00
   307  3.0600000000000D+00  0.0000000000000D+00  0.0000000000000D+00
   308  3.0700000000000D+00  0.0000000000000D+00  0.0000000000000D+00
   309  3.0800000000000D+00  0.0000000000000D+00  0.0000000000000D+00
   310  3.0900000000000D+00  0.0000000000000D+00  0.0000000000000D+00
   311  3.1000000000000D+00  0.0000000000000D+00  0.0000000000000D+00
   312  3.1100000000000D+00  0.0000000000000D+00  0.0000000000000D+00
   313  3.1200000000000D+00  0.0000000000000D+00  0.0000000000000D+00
   314  3.1300000000000D+00  0.0000000000000D+00  0.0000000000000D+00
   315  3.1400000000000D+00  0.0000000000000D+00  0.0000000000000D+00
   316  3.1500000000000D+00  0.0000000000000D+00  0.0000000000000D+00
   317  3.1600000000000D+00  0.0000000000000D+00  0.0000000000000D+00
   318  3.1700000000000D+00  0.0000000000000D+00  0.0000000000000D+00
   319  3.1800000000000D+00  0.0000000000000D+00  0.0000000000000D+00
   320  3.1900000000000D+00  0.0000000000000D+00  0.0000000000000D+00
   321  3.2000000000000D+00  0.0000000000000D+00  0.0000000000000D+00
   322  3.2100000000000D+00  0.0000000000000D+00  0.0000000000000D+00
   323  3.2200000000000D+00  0.0000000000000D+00  0.0000000000000D+00
   324  3.2300000000000D+00  0.0000000000000D+00  0.0000000000000D+00
   325  3.2400000000000D+00  0.0000000000000D+00  0.0000000000000D+00
   326  3.2500000000000D+00  0.0000000000000D+00  0.0000000000000D+00
   327  3.2600000000000D+00  0.0000000000000D+00  0.0000000000000D+00
   328  3.2700000000000D+00  0.0000000000000D+00  0.0000000000000D+00
   329  3.2800000000000D+00  0.0000000000000D+00  0.0000000000000D+00
   330  3.2900000000000D+00  0.0000000000000D+00  0.0000000000000D+00
   331  3.3000000000000D+00  0.0000000000000D+00  0.0000000000000D+00
   332  3.3100000000000D+00  0.0000000000000D+00  0.0000000000000D+00
   333  3.3200000000000D+00  0.0000000000000D+00  0.0000000000000D+00
   334  3.3300000000000D+00  0.0000000000000D+00  0.0000000000000D+00
   335  3.3400000000000D+00  0.0000000000000D+00  0.0000000000000D+00
   336  3.3500000000000D+00  0.0000000000000D+00  0.0000000000000D+00
   337  3.3600000000000D+00  0.0000000000000D+00  0.0000000000000D+00
   338  3.3700000000000D+00  0.0000000000000D+00  0.0000000000000D+00
   339  3.3800000000000D+00  0.0000000000000D+00  0.0000000000000D+00
   340  3.3900000000000D+00  0.0000000000000D+00  0.0000000000000D+00
   341  3.4000000000000D+00  0.0000000000000D+00  0.0000000000000D+00
   342  3.4100000000000D+00  0.0000000000000D+00  0.0000000000000D+00
   343  3.4200000000000D+00  0.0000000000000D+00  0.0000000000000D+00
   344  3.4300000000000D+00  0.0000000000000D+00  0.0000000000000D+00
   345  3.4400000000000D+00  0.0000000000000D+00  0.0000000000000D+00
   346  3.4500000000000D+00  0.0000000000000D+00  0.0000000000000D+00
   347  3.4600000000000D+00  0.0000000000000D+00  0.0000000000000D+00
   348  3.4700000000000D+00  0.0000000000000D+00  0.0000000000000D+00
   349  3.4800000000000D+00  0.0000000000000D+00  0.0000000000000D+00
   350  3.4900000000000D+00  0.0000000000000D+00  0.0000000000000D+00
   351  3.5000000000000D+00  0.0000000000000D+00  0.0000000000000D+00
   352  3.5100000000000D+00  0.0000000000000D+00  0.0000000000000D+00
   353  3.5200000000000D+00  0.0000000000000D+00  0.0000000000000D+00
   354  3.5300000000000D+00  0.0000000000000D+00  0.0000000000000D+00
   355  3.5400000000000D+00  0.0000000000000D+00  0.0000000000000D+00
   356  3.5500000000000D+00  0.0000000000000D+00  0.0000000000000D+00
   357  3.5600000000000D+00  0.0000000000000D+00  0.0000000000000D+00
   358  3.5700000000000D+00  0.0000000000000D+00  0.0000000000000D+00
   359  3.5800000000000D+00  0.0000000000000D+00  0.0000000000000D+00
   360  3.5900000000000D+00  0.0000000000000D+00  0.0000000000000D+00
   361  3.6000000000000D+00  0.0000000000000D+00  0.0000000000000D+00
   362  3.6100000000000D+00  0.0000000000000D+00  0.0000000000000D+00
   363  3.6200000000000D+00  0.0000000000000D+00  0.0000000000000D+00
   364  3.6300000000000D+00  0.0000000000000D+00  0.0000000000000D+00
   365  3.6400000000000D+00  0.0000000000000D+00  0.0000000000000D+00
   366  3.6500000000000D+00  0.0000000000000D+00  0.0000000000000D+00
   367  3.6600000000000D+00  0.0000000000000D+00  0.0000000000000D+00
   368  3.6700000000000D+00  0.0000000000000D+00  0.0000000000000D+00
   369  3.6800000000000D+00  0.0000000000000D+00  0.0000000000000D+00
   370  3.6900000000000D+00  0.0000000000000D+00  0.0000000000000D+00
   371  3.7000000000000D+00  0.0000000000000D+00  0.0000000000000D+00
   372  3.7100000000000D+00  0.0000000000000D+00  0.0000000000000D+00
   373  3.7200000000000D+00  0.0000000000000D+00  0.0000000000000D+00
   374  3.7300000000000D+00  0.0000000000000D+00  0.0000000000000D+00
   375  3.7400000000000D+00  0.0000000000000D+00  0.0000000000000D+00
   376  3.7500000000000D+00  0.0000000000000D+00  0.0000000000000D+00
   377  3.7600000000000D+00  0.0000000000000D+00  0.0000000000000D+00
   378  3.7700000000000D+00  0.0000000000000D+00  0.0000000000000D+00
   379  3.7800000000000D+00  0.0000000000000D+00  0.0000000000000D+00
   380  3.7900000000000D+00  0.0000000000000D+00  0.0000000000000D+00
   381  3.8000000000000D+00  0.0000000000000D+00  0.0000000000000D+00
   382  3.8100000000000D+00  0.0000000000000D+00  0.0000000000000D+00
   383  3.8200000000000D+00  0.0000000000000D+00  0.0000000000000D+00
   384  3.8300000000000D+00  0.0000000000000D+00  0.0000000000000D+00
   385  3.8400000000000D+00  0.0000000000000D+00  0.0000000000000D+00
   386  3.8500000000000D+00  0.0000000000000D+00  0.0000000000000D+00
   387  3.8600000000000D+00  0.0000000000000D+00  0.0000000000000D+00
   388  3.8700000000000D+00  0.0000000000000D+00  0.0000000000000D+00
   389  3.8800000000000D+00  0.0000000000000D+00  0.0000000000000D+00
   390  3.8900000000000D+00  0.0000000000000D+00  0.0000000000000D+00
   391  3.9000000000000D+00  0.0000000000000D+00  0.0000000000000D+00
   392  3.9100000000000D+00  0.0000000000000D+00  0.0000000000000D+00
   393  3.9200000000000D+00  0.0000000000000D+00  0.0000000000000D+00
   394  3.9300000000000D+00  0.0000000000000D+00  0.0000000000000D+00
   395  3.9400000000000D+00  0.0000000000000D+00  0.0000000000000D+00
   396  3.9500000000000D+00  0.0000000000000D+00  0.0000000000000D+00
   397  3.9600000000000D+00  0.0000000000000D+00  0.0000000000000D+00
   398  3.9700000000000D+00  0.0000000000000D+00  0.0000000000000D+00
   399  3.9800000000000D+00  0.0000000000000D+00  0.0000000000000D+00
   400  3.9900000000000D+00  0.0000000000000D+00  0.0000000000000D+00
   401  4.0000000000000D+00  0.0000000000000D+00  0.0000000000000D+00
   402  4.0100000000000D+00  0.0000000000000D+00  0.0000000000000D+00
   403  4.0200000000000D+00  0.0000000000000D+00  0.0000000000000D+00
   404  4.0300000000000D+00  0.0000000000000D+00  0.0000000000000D+00
   405  4.0400000000000D+00  0.0000000000000D+00  0.0000000000000D+00
   406  4.0500000000000D+00  0.0000000000000D+00  0.0000000000000D+00
   407  4.0600000000000D+00  0.0000000000000D+00  0.0000000000000D+00
   408  4.0700000000000D+00  0.0000000000000D+00  0.0000000000000D+00
   409  4.0800000000000D+00  0.0000000000000D+00  0.0000000000000D+00
   410  4.0900000000000D+00  0.0000000000000D+00  0.0000000000000D+00
   411  4.1000000000000D+00  0.0000000000000D+00  0.0000000000000D+00
   412  4.1100000000000D+00  0.0000000000000D+00  0.0000000000000D+00
   413  4.1200000000000D+00  0.0000000000000D+00  0.0000000000000D+00
   414  4.1300000000000D+00  0.0000000000000D+00  0.0000000000000D+00
   415  4.1400000000000D+00  0.0000000000000D+00  0.0000000000000D+00
   416  4.1500000000000D+00  0.0000000000000D+00  0.0000000000000D+00
   417  4.1600000000000D+00  0.0000000000000D+00  0.0000000000000D+00
   418  4.1700000000000D+00  0.0000000000000D+00  0.0000000000000D+00
   419  4.1800000000000D+00  0.0000000000000D+00  0.0000000000000D+00
   420  4.1900000000000D+00  0.0000000000000D+00  0.0000000000000D+00
   421  4.2000000000000D+00  0.0000000000000D+00  0.0000000000000D+00
   422  4.2100000000000D+00  0.0000000000000D+00  0.0000000000000D+00