He    ONCVPSP-3.3.0  r_core=   1.26476   1.13601
      2.0000      2.0000      220408    zatom,zion,pspd
     8       2   1     4   600     0    pspcod,pspxc,lmax,lloc,mmax,r2well
  5.99000000  0.00000000  0.00000000    rchrg fchrg qchrg
     2     1     0     0     0    nproj
     1     1           extension_switch
   0                        -3.4716527225218D+00 -7.8652523419925D-01
     1  0.0000000000000D+00 -2.3186048636603D-09  7.0625224557475D-09
     2  1.0000000000000D-02  1.0940498201111D-01 -5.2067001735157D-02
     3  2.0000000000000D-02  2.1836248690115D-01 -1.0355283342857D-01
     4  3.0000000000000D-02  3.2642817191930D-01 -1.5388302524756D-01
     5  4.0000000000000D-02  4.3316392583681D-01 -2.0249640444827D-01
     6  5.0000000000000D-02  5.3814089226905D-01 -2.4885148744824D-01
     7  6.0000000000000D-02  6.4094238375940D-01 -2.9243256928191D-01
     8  7.0000000000000D-02  7.4116665299331D-01 -3.3275541804470D-01
     9  8.0000000000000D-02  8.3842948982969D-01 -3.6937248899404D-01
    10  9.0000000000000D-02  9.3236661565427D-01 -4.0187758155091D-01
    11  1.0000000000000D-01  1.0226358498251D+00 -4.2990987237507D-01
    12  1.1000000000000D-01  1.1089190266348D+00 -4.5315726878279D-01
    13  1.2000000000000D-01  1.1909236451897D+00 -4.7135903883110D-01
    14  1.3000000000000D-01  1.2683842388325D+00 -4.8430768718055D-01
    15  1.4000000000000D-01  1.3410634551334D+00 -4.9185005913056D-01
    16  1.5000000000000D-01  1.4087528419673D+00 -4.9388766874841D-01
    17  1.6000000000000D-01  1.4712733397018D+00 -4.9037626053216D-01
    18  1.7000000000000D-01  1.5284754839538D+00 -4.8132462730688D-01
    19  1.8000000000000D-01  1.5802393276665D+00 -4.6679271980417D-01
    20  1.9000000000000D-01  1.6264740953193D+00 -4.4688909538074D-01
    21  2.0000000000000D-01  1.6671175858563D+00 -4.2176776436877D-01
    22  2.1000000000000D-01  1.7021353443213D+00 -3.9162450241386D-01
    23  2.2000000000000D-01  1.7315196251806D+00 -3.5669270566509D-01
    24  2.3000000000000D-01  1.7552881728212D+00 -3.1723887267739D-01
    25  2.4000000000000D-01  1.7734828467214D+00 -2.7355780224470D-01
    26  2.5000000000000D-01  1.7861681202406D+00 -2.2596760000458D-01
    27  2.6000000000000D-01  1.7934294828699D+00 -1.7480458848100D-01
    28  2.7000000000000D-01  1.7953717760956D+00 -1.2041821523178D-01
    29  2.8000000000000D-01  1.7921174927675D+00 -6.3166051949441D-02
    30  2.9000000000000D-01  1.7838050690353D+00 -3.4089737682542D-03
    31  3.0000000000000D-01  1.7705871965498D+00  5.8493397263956D-02
    32  3.1000000000000D-01  1.7526291807492D+00  1.2218690747897D-01
    33  3.2000000000000D-01  1.7301073687075D+00  1.8732667691535D-01
    34  3.3000000000000D-01  1.7032076672648D+00  2.5358043557209D-01
    35  3.4000000000000D-01  1.6721241690499D+00  3.2063134219869D-01
    36  3.5000000000000D-01  1.6370579006033D+00  3.8818024882467D-01
    37  3.6000000000000D-01  1.5982157031920D+00  4.5594738647409D-01
    38  3.7000000000000D-01  1.5558092531514D+00  5.2367346015583D-01
    39  3.8000000000000D-01  1.5100542247651D+00  5.9112015401567D-01
    40  3.9000000000000D-01  1.4611695948940D+00  6.5807006023231D-01
    41  4.0000000000000D-01  1.4093770848528D+00  7.2432605757227D-01
    42  4.1000000000000D-01  1.3549007315012D+00  7.8971017725358D-01
    43  4.2000000000000D-01  1.2979665762227D+00  8.5406200466011D-01
    44  4.3000000000000D-01  1.2388024574941D+00  9.1723667528319D-01
    45  4.4000000000000D-01  1.1776378901450D+00  9.7910253184242D-01
    46  4.5000000000000D-01  1.1147040122438D+00  1.0395385166820D+00
    47  4.6000000000000D-01  1.0502335788546D+00  1.0984313791011D+00
    48  4.7000000000000D-01  9.8446098073097D-01  1.1556727811438D+00
    49  4.8000000000000D-01  9.1762226537848D-01  1.2111563874583D+00
    50  4.9000000000000D-01  8.4995513782920D-01  1.2647750250970D+00
    51  5.0000000000000D-01  7.8169891894887D-01  1.3164179975394D+00
    52  5.1000000000000D-01  7.1309444011885D-01  1.3659686338255D+00
    53  5.2000000000000D-01  6.4438385469060D-01  1.4133021485243D+00
    54  5.3000000000000D-01  5.7581034866558D-01  1.4582838814457D+00
    55  5.4000000000000D-01  5.0761773556855D-01  1.5007679776537D+00
    56  5.5000000000000D-01  4.4004992341105D-01  1.5405965586046D+00
    57  5.6000000000000D-01  3.7335024491476D-01  1.5775994243401D+00
    58  5.7000000000000D-01  3.0776064573205D-01  1.6115943147676D+00
    59  5.8000000000000D-01  2.4352072916865D-01  1.6423877454580D+00
    60  5.9000000000000D-01  1.8086665982603D-01  1.6697764202732D+00
    61  6.0000000000000D-01  1.2002993253271D-01  1.6935492098251D+00
    62  6.1000000000000D-01  6.1236016869541D-02  1.7134896714579D+00
    63  6.2000000000000D-01  4.7028913913408D-03  1.7293790735178D+00
    64  6.3000000000000D-01 -4.9360514724394D-02  1.7409998742345D+00
    65  6.4000000000000D-01 -1.0075595155266D-01  1.7481395940460D+00
    66  6.5000000000000D-01 -1.4929752578015D-01  1.7505950096965D+00
    67  6.6000000000000D-01 -1.9481339895150D-01  1.7481765892894D+00
    68  6.7000000000000D-01 -2.3714747793538D-01  1.7407130798466D+00
    69  6.8000000000000D-01 -2.7616106739830D-01  1.7280561529390D+00
    70  6.9000000000000D-01 -3.1173445311642D-01  1.7100850098266D+00
    71  7.0000000000000D-01 -3.4376838460918D-01  1.6867108453487D+00
    72  7.1000000000000D-01 -3.7218542585488D-01  1.6578810695952D+00
    73  7.2000000000000D-01 -3.9693114377523D-01  1.6235831882461D+00
    74  7.3000000000000D-01 -4.1797510573005D-01  1.5838482463462D+00
    75  7.4000000000000D-01 -4.3531165943826D-01  1.5387537461494D+00
    76  7.5000000000000D-01 -4.4896047150987D-01  1.4884259574603D+00
    77  7.6000000000000D-01 -4.5896680408143D-01  1.4330415484515D+00
    78  7.7000000000000D-01 -4.6540151285894D-01  1.3728284761300D+00
    79  7.8000000000000D-01 -4.6836075412348D-01  1.3080660882843D+00
    80  7.9000000000000D-01 -4.6796539285376D-01  1.2390844025684D+00
    81  8.0000000000000D-01 -4.6436010901401D-01  1.1662625432157D+00
    82  8.1000000000000D-01 -4.5771220414161D-01  1.0900263314045D+00
    83  8.2000000000000D-01 -4.4821011556057D-01  1.0108450412403D+00
    84  8.3000000000000D-01 -4.3606165075004D-01  9.2922734940054D-01
    85  8.4000000000000D-01 -4.2149195951345D-01  8.4571652237944D-01
    86  8.5000000000000D-01 -4.0474126652900D-01  7.6088490069008D-01
    87  8.6000000000000D-01 -3.8606239152146D-01  6.7532775402655D-01
    88  8.7000000000000D-01 -3.6571808858785D-01  5.8965659497074D-01
    89  8.8000000000000D-01 -3.4397824005165D-01  5.0449205108565D-01
    90  8.9000000000000D-01 -3.2111694353335D-01  4.2045640591710D-01
    91  9.0000000000000D-01 -2.9740953364118D-01  3.3816592831124D-01
    92  9.1000000000000D-01 -2.7312958174519D-01  2.5822311635598D-01
    93  9.2000000000000D-01 -2.4854591865410D-01  1.8120898701591D-01
    94  9.3000000000000D-01 -2.2391972563072D-01  1.0767554503586D-01
    95  9.4000000000000D-01 -1.9950173903760D-01  3.8138564861846D-02
    96  9.5000000000000D-01 -1.7552961299020D-01 -2.6929182864343D-02
    97  9.6000000000000D-01 -1.5222548272653D-01 -8.7104133199214D-02
    98  9.7000000000000D-01 -1.2979376891944D-01 -1.4201743716840D-01
    99  9.8000000000000D-01 -1.0841926062574D-01 -1.9135966713533D-01
   100  9.9000000000000D-01 -8.8265510072166D-02 -2.3488461820243D-01
   101  1.0000000000000D+00 -6.9473544218018D-02 -2.7241221432428D-01
   102  1.0100000000000D+00 -5.2161053609375D-02 -3.0382989399277D-01
   103  1.0200000000000D+00 -3.6421495358862D-02 -3.2909479887261D-01
   104  1.0300000000000D+00 -2.2322696703810D-02 -3.4823836706489D-01
   105  1.0400000000000D+00 -9.9057873467830D-03 -3.6136973620207D-01
   106  1.0500000000000D+00  8.1454063149489D-04 -3.6867403539025D-01
   107  1.0600000000000D+00  9.8493374001362D-03 -3.7040933795513D-01
   108  1.0700000000000D+00  1.7234345164280D-02 -3.6690261022590D-01
   109  1.0800000000000D+00  2.3028584921926D-02 -3.5854459400727D-01
   110  1.0900000000000D+00  2.7312608306813D-02 -3.4578371462135D-01
   111  1.1000000000000D+00  3.0186444962184D-02 -3.2911910823759D-01
   112  1.1100000000000D+00  3.1767279560116D-02 -3.0909287105344D-01
   113  1.1200000000000D+00  3.2186896787562D-02 -2.8628164638329D-01
   114  1.1300000000000D+00  3.1588936870068D-02 -2.6128767873343D-01
   115  1.1400000000000D+00  3.0126006859174D-02 -2.3472947209092D-01
   116  1.1500000000000D+00  2.7956695941034D-02 -2.0723219898988D-01
   117  1.1600000000000D+00  2.5242544249015D-02 -1.7941801072739D-01
   118  1.1700000000000D+00  2.2145015287608D-02 -1.5189640109208D-01
   119  1.1800000000000D+00  1.8822522484614D-02 -1.2525477726899D-01
   120  1.1900000000000D+00  1.5427559303958D-02 -1.0004938838036D-01
   121  1.2000000000000D+00  1.2103980387913D-02 -7.6796756168106D-02
   122  1.2100000000000D+00  8.9844787672538D-03 -5.5965744959344D-02
   123  1.2200000000000D+00  6.1883018806658D-03 -3.7970401100703D-02
   124  1.2300000000000D+00  3.8206871505558D-03 -2.3172299647713D-02
   125  1.2400000000000D+00  1.9561528266113D-03 -1.1784947034702D-02
   126  1.2500000000000D+00  6.9161760682889D-04 -4.1984332468834D-03
   127  1.2600000000000D+00  8.0845708147129D-05 -5.8857076933860D-04
   128  1.2700000000000D+00 -5.6449277333004D-05  2.5920819393679D-04
   129  1.2800000000000D+00  2.8514373674644D-07 -1.4280545387697D-06
   130  1.2900000000000D+00  1.1951055234089D-05 -6.1313417883008D-05
   131  1.3000000000000D+00 -2.4034862488023D-06  1.1977652790982D-05
   132  1.3100000000000D+00 -4.3205782458709D-07  2.1759826559384D-06
   133  1.3200000000000D+00  7.4606830450674D-08 -1.5695065858719D-07
   134  1.3300000000000D+00  0.0000000000000D+00  0.0000000000000D+00
   135  1.3400000000000D+00  0.0000000000000D+00  0.0000000000000D+00
   136  1.3500000000000D+00  0.0000000000000D+00  0.0000000000000D+00
   137  1.3600000000000D+00  0.0000000000000D+00  0.0000000000000D+00
   138  1.3700000000000D+00  0.0000000000000D+00  0.0000000000000D+00
   139  1.3800000000000D+00  0.0000000000000D+00  0.0000000000000D+00
   140  1.3900000000000D+00  0.0000000000000D+00  0.0000000000000D+00
   141  1.4000000000000D+00  0.0000000000000D+00  0.0000000000000D+00
   142  1.4100000000000D+00  0.0000000000000D+00  0.0000000000000D+00
   143  1.4200000000000D+00  0.0000000000000D+00  0.0000000000000D+00
   144  1.4300000000000D+00  0.0000000000000D+00  0.0000000000000D+00
   145  1.4400000000000D+00  0.0000000000000D+00  0.0000000000000D+00
   146  1.4500000000000D+00  0.0000000000000D+00  0.0000000000000D+00
   147  1.4600000000000D+00  0.0000000000000D+00  0.0000000000000D+00
   148  1.4700000000000D+00  0.0000000000000D+00  0.0000000000000D+00
   149  1.4800000000000D+00  0.0000000000000D+00  0.0000000000000D+00
   150  1.4900000000000D+00  0.0000000000000D+00  0.0000000000000D+00
   151  1.5000000000000D+00  0.0000000000000D+00  0.0000000000000D+00
   152  1.5100000000000D+00  0.0000000000000D+00  0.0000000000000D+00
   153  1.5200000000000D+00  0.0000000000000D+00  0.0000000000000D+00
   154  1.5300000000000D+00  0.0000000000000D+00  0.0000000000000D+00
   155  1.5400000000000D+00  0.0000000000000D+00  0.0000000000000D+00
   156  1.5500000000000D+00  0.0000000000000D+00  0.0000000000000D+00
   157  1.5600000000000D+00  0.0000000000000D+00  0.0000000000000D+00
   158  1.5700000000000D+00  0.0000000000000D+00  0.0000000000000D+00
   159  1.5800000000000D+00  0.0000000000000D+00  0.0000000000000D+00
   160  1.5900000000000D+00  0.0000000000000D+00  0.0000000000000D+00
   161  1.6000000000000D+00  0.0000000000000D+00  0.0000000000000D+00
   162  1.6100000000000D+00  0.0000000000000D+00  0.0000000000000D+00
   163  1.6200000000000D+00  0.0000000000000D+00  0.0000000000000D+00
   164  1.6300000000000D+00  0.0000000000000D+00  0.0000000000000D+00
   165  1.6400000000000D+00  0.0000000000000D+00  0.0000000000000D+00
   166  1.6500000000000D+00  0.0000000000000D+00  0.0000000000000D+00
   167  1.6600000000000D+00  0.0000000000000D+00  0.0000000000000D+00
   168  1.6700000000000D+00  0.0000000000000D+00  0.0000000000000D+00
   169  1.6800000000000D+00  0.0000000000000D+00  0.0000000000000D+00
   170  1.6900000000000D+00  0.0000000000000D+00  0.0000000000000D+00
   171  1.7000000000000D+00  0.0000000000000D+00  0.0000000000000D+00
   172  1.7100000000000D+00  0.0000000000000D+00  0.0000000000000D+00
   173  1.7200000000000D+00  0.0000000000000D+00  0.0000000000000D+00
   174  1.7300000000000D+00  0.0000000000000D+00  0.0000000000000D+00
   175  1.7400000000000D+00  0.0000000000000D+00  0.0000000000000D+00
   176  1.7500000000000D+00  0.0000000000000D+00  0.0000000000000D+00
   177  1.7600000000000D+00  0.0000000000000D+00  0.0000000000000D+00
   178  1.7700000000000D+00  0.0000000000000D+00  0.0000000000000D+00
   179  1.7800000000000D+00  0.0000000000000D+00  0.0000000000000D+00
   180  1.7900000000000D+00  0.0000000000000D+00  0.0000000000000D+00
   181  1.8000000000000D+00  0.0000000000000D+00  0.0000000000000D+00
   182  1.8100000000000D+00  0.0000000000000D+00  0.0000000000000D+00
   183  1.8200000000000D+00  0.0000000000000D+00  0.0000000000000D+00
   184  1.8300000000000D+00  0.0000000000000D+00  0.0000000000000D+00
   185  1.8400000000000D+00  0.0000000000000D+00  0.0000000000000D+00
   186  1.8500000000000D+00  0.0000000000000D+00  0.0000000000000D+00
   187  1.8600000000000D+00  0.0000000000000D+00  0.0000000000000D+00
   188  1.8700000000000D+00  0.0000000000000D+00  0.0000000000000D+00
   189  1.8800000000000D+00  0.0000000000000D+00  0.0000000000000D+00
   190  1.8900000000000D+00  0.0000000000000D+00  0.0000000000000D+00
   191  1.9000000000000D+00  0.0000000000000D+00  0.0000000000000D+00
   192  1.9100000000000D+00  0.0000000000000D+00  0.0000000000000D+00
   193  1.9200000000000D+00  0.0000000000000D+00  0.0000000000000D+00
   194  1.9300000000000D+00  0.0000000000000D+00  0.0000000000000D+00
   195  1.9400000000000D+00  0.0000000000000D+00  0.0000000000000D+00
   196  1.9500000000000D+00  0.0000000000000D+00  0.0000000000000D+00
   197  1.9600000000000D+00  0.0000000000000D+00  0.0000000000000D+00
   198  1.9700000000000D+00  0.0000000000000D+00  0.0000000000000D+00
   199  1.9800000000000D+00  0.0000000000000D+00  0.0000000000000D+00
   200  1.9900000000000D+00  0.0000000000000D+00  0.0000000000000D+00
   201  2.0000000000000D+00  0.0000000000000D+00  0.0000000000000D+00
   202  2.0100000000000D+00  0.0000000000000D+00  0.0000000000000D+00
   203  2.0200000000000D+00  0.0000000000000D+00  0.0000000000000D+00
   204  2.0300000000000D+00  0.0000000000000D+00  0.0000000000000D+00
   205  2.0400000000000D+00  0.0000000000000D+00  0.0000000000000D+00
   206  2.0500000000000D+00  0.0000000000000D+00  0.0000000000000D+00
   207  2.0600000000000D+00  0.0000000000000D+00  0.0000000000000D+00
   208  2.0700000000000D+00  0.0000000000000D+00  0.0000000000000D+00
   209  2.0800000000000D+00  0.0000000000000D+00  0.0000000000000D+00
   210  2.0900000000000D+00  0.0000000000000D+00  0.0000000000000D+00
   211  2.1000000000000D+00  0.0000000000000D+00  0.0000000000000D+00
   212  2.1100000000000D+00  0.0000000000000D+00  0.0000000000000D+00
   213  2.1200000000000D+00  0.0000000000000D+00  0.0000000000000D+00
   214  2.1300000000000D+00  0.0000000000000D+00  0.0000000000000D+00
   215  2.1400000000000D+00  0.0000000000000D+00  0.0000000000000D+00
   216  2.1500000000000D+00  0.0000000000000D+00  0.0000000000000D+00
   217  2.1600000000000D+00  0.0000000000000D+00  0.0000000000000D+00
   218  2.1700000000000D+00  0.0000000000000D+00  0.0000000000000D+00
   219  2.1800000000000D+00  0.0000000000000D+00  0.0000000000000D+00
   220  2.1900000000000D+00  0.0000000000000D+00  0.0000000000000D+00
   221  2.2000000000000D+00  0.0000000000000D+00  0.0000000000000D+00
   222  2.2100000000000D+00  0.0000000000000D+00  0.0000000000000D+00
   223  2.2200000000000D+00  0.0000000000000D+00  0.0000000000000D+00
   224  2.2300000000000D+00  0.0000000000000D+00  0.0000000000000D+00
   225  2.2400000000000D+00  0.0000000000000D+00  0.0000000000000D+00
   226  2.2500000000000D+00  0.0000000000000D+00  0.0000000000000D+00
   227  2.2600000000000D+00  0.0000000000000D+00  0.0000000000000D+00
   228  2.2700000000000D+00  0.0000000000000D+00  0.0000000000000D+00
   229  2.2800000000000D+00  0.0000000000000D+00  0.0000000000000D+00
   230  2.2900000000000D+00  0.0000000000000D+00  0.0000000000000D+00
   231  2.3000000000000D+00  0.0000000000000D+00  0.0000000000000D+00
   232  2.3100000000000D+00  0.0000000000000D+00  0.0000000000000D+00
   233  2.3200000000000D+00  0.0000000000000D+00  0.0000000000000D+00
   234  2.3300000000000D+00  0.0000000000000D+00  0.0000000000000D+00
   235  2.3400000000000D+00  0.0000000000000D+00  0.0000000000000D+00
   236  2.3500000000000D+00  0.0000000000000D+00  0.0000000000000D+00
   237  2.3600000000000D+00  0.0000000000000D+00  0.0000000000000D+00
   238  2.3700000000000D+00  0.0000000000000D+00  0.0000000000000D+00
   239  2.3800000000000D+00  0.0000000000000D+00  0.0000000000000D+00
   240  2.3900000000000D+00  0.0000000000000D+00  0.0000000000000D+00
   241  2.4000000000000D+00  0.0000000000000D+00  0.0000000000000D+00
   242  2.4100000000000D+00  0.0000000000000D+00  0.0000000000000D+00
   243  2.4200000000000D+00  0.0000000000000D+00  0.0000000000000D+00
   244  2.4300000000000D+00  0.0000000000000D+00  0.0000000000000D+00
   245  2.4400000000000D+00  0.0000000000000D+00  0.0000000000000D+00
   246  2.4500000000000D+00  0.0000000000000D+00  0.0000000000000D+00
   247  2.4600000000000D+00  0.0000000000000D+00  0.0000000000000D+00
   248  2.4700000000000D+00  0.0000000000000D+00  0.0000000000000D+00
   249  2.4800000000000D+00  0.0000000000000D+00  0.0000000000000D+00
   250  2.4900000000000D+00  0.0000000000000D+00  0.0000000000000D+00
   251  2.5000000000000D+00  0.0000000000000D+00  0.0000000000000D+00
   252  2.5100000000000D+00  0.0000000000000D+00  0.0000000000000D+00
   253  2.5200000000000D+00  0.0000000000000D+00  0.0000000000000D+00
   254  2.5300000000000D+00  0.0000000000000D+00  0.0000000000000D+00
   255  2.5400000000000D+00  0.0000000000000D+00  0.0000000000000D+00
   256  2.5500000000000D+00  0.0000000000000D+00  0.0000000000000D+00
   257  2.5600000000000D+00  0.0000000000000D+00  0.0000000000000D+00
   258  2.5700000000000D+00  0.0000000000000D+00  0.0000000000000D+00
   259  2.5800000000000D+00  0.0000000000000D+00  0.0000000000000D+00
   260  2.5900000000000D+00  0.0000000000000D+00  0.0000000000000D+00
   261  2.6000000000000D+00  0.0000000000000D+00  0.0000000000000D+00
   262  2.6100000000000D+00  0.0000000000000D+00  0.0000000000000D+00
   263  2.6200000000000D+00  0.0000000000000D+00  0.0000000000000D+00
   264  2.6300000000000D+00  0.0000000000000D+00  0.0000000000000D+00
   265  2.6400000000000D+00  0.0000000000000D+00  0.0000000000000D+00
   266  2.6500000000000D+00  0.0000000000000D+00  0.0000000000000D+00
   267  2.6600000000000D+00  0.0000000000000D+00  0.0000000000000D+00
   268  2.6700000000000D+00  0.0000000000000D+00  0.0000000000000D+00
   269  2.6800000000000D+00  0.0000000000000D+00  0.0000000000000D+00
   270  2.6900000000000D+00  0.0000000000000D+00  0.0000000000000D+00
   271  2.7000000000000D+00  0.0000000000000D+00  0.0000000000000D+00
   272  2.7100000000000D+00  0.0000000000000D+00  0.0000000000000D+00
   273  2.7200000000000D+00  0.0000000000000D+00  0.0000000000000D+00
   274  2.7300000000000D+00  0.0000000000000D+00  0.0000000000000D+00
   275  2.7400000000000D+00  0.0000000000000D+00  0.0000000000000D+00
   276  2.7500000000000D+00  0.0000000000000D+00  0.0000000000000D+00
   277  2.7600000000000D+00  0.0000000000000D+00  0.0000000000000D+00
   278  2.7700000000000D+00  0.0000000000000D+00  0.0000000000000D+00
   279  2.7800000000000D+00  0.0000000000000D+00  0.0000000000000D+00
   280  2.7900000000000D+00  0.0000000000000D+00  0.0000000000000D+00
   281  2.8000000000000D+00  0.0000000000000D+00  0.0000000000000D+00
   282  2.8100000000000D+00  0.0000000000000D+00  0.0000000000000D+00
   283  2.8200000000000D+00  0.0000000000000D+00  0.0000000000000D+00
   284  2.8300000000000D+00  0.0000000000000D+00  0.0000000000000D+00
   285  2.8400000000000D+00  0.0000000000000D+00  0.0000000000000D+00
   286  2.8500000000000D+00  0.0000000000000D+00  0.0000000000000D+00
   287  2.8600000000000D+00  0.0000000000000D+00  0.0000000000000D+00
   288  2.8700000000000D+00  0.0000000000000D+00  0.0000000000000D+00
   289  2.8800000000000D+00  0.0000000000000D+00  0.0000000000000D+00
   290  2.8900000000000D+00  0.0000000000000D+00  0.0000000000000D+00
   291  2.9000000000000D+00  0.0000000000000D+00  0.0000000000000D+00
   292  2.9100000000000D+00  0.0000000000000D+00  0.0000000000000D+00
   293  2.9200000000000D+00  0.0000000000000D+00  0.0000000000000D+00
   294  2.9300000000000D+00  0.0000000000000D+00  0.0000000000000D+00
   295  2.9400000000000D+00  0.0000000000000D+00  0.0000000000000D+00
   296  2.9500000000000D+00  0.0000000000000D+00  0.0000000000000D+00
   297  2.9600000000000D+00  0.0000000000000D+00  0.0000000000000D+00
   298  2.9700000000000D+00  0.0000000000000D+00  0.0000000000000D+00
   299  2.9800000000000D+00  0.0000000000000D+00  0.0000000000000D+00
   300  2.9900000000000D+00  0.0000000000000D+00  0.0000000000000D+00
   301  3.0000000000000D+00  0.0000000000000D+00  0.0000000000000D+00
   302  3.0100000000000D+00  0.0000000000000D+00  0.0000000000000D+00
   303  3.0200000000000D+00  0.0000000000000D+00  0.0000000000000D+00
   304  3.0300000000000D+00  0.0000000000000D+00  0.0000000000000D+00
   305  3.0400000000000D+00  0.0000000000000D+00  0.0000000000000D+00
   306  3.0500000000000D+00  0.0000000000000D+00  0.0000000000000D+00
   307  3.0600000000000D+00  0.0000000000000D+00  0.0000000000000D+00
   308  3.0700000000000D+00  0.0000000000000D+00  0.0000000000000D+00
   309  3.0800000000000D+00  0.0000000000000D+00  0.0000000000000D+00
   310  3.0900000000000D+00  0.0000000000000D+00  0.0000000000000D+00
   311  3.1000000000000D+00  0.0000000000000D+00  0.0000000000000D+00
   312  3.1100000000000D+00  0.0000000000000D+00  0.0000000000000D+00
   313  3.1200000000000D+00  0.0000000000000D+00  0.0000000000000D+00
   314  3.1300000000000D+00  0.0000000000000D+00  0.0000000000000D+00
   315  3.1400000000000D+00  0.0000000000000D+00  0.0000000000000D+00
   316  3.1500000000000D+00  0.0000000000000D+00  0.0000000000000D+00
   317  3.1600000000000D+00  0.0000000000000D+00  0.0000000000000D+00
   318  3.1700000000000D+00  0.0000000000000D+00  0.0000000000000D+00
   319  3.1800000000000D+00  0.0000000000000D+00  0.0000000000000D+00
   320  3.1900000000000D+00  0.0000000000000D+00  0.0000000000000D+00
   321  3.2000000000000D+00  0.0000000000000D+00  0.0000000000000D+00
   322  3.2100000000000D+00  0.0000000000000D+00  0.0000000000000D+00
   323  3.2200000000000D+00  0.0000000000000D+00  0.0000000000000D+00
   324  3.2300000000000D+00  0.0000000000000D+00  0.0000000000000D+00
   325  3.2400000000000D+00  0.0000000000000D+00  0.0000000000000D+00
   326  3.2500000000000D+00  0.0000000000000D+00  0.0000000000000D+00
   327  3.2600000000000D+00  0.0000000000000D+00  0.0000000000000D+00
   328  3.2700000000000D+00  0.0000000000000D+00  0.0000000000000D+00
   329  3.2800000000000D+00  0.0000000000000D+00  0.0000000000000D+00
   330  3.2900000000000D+00  0.0000000000000D+00  0.0000000000000D+00
   331  3.3000000000000D+00  0.0000000000000D+00  0.0000000000000D+00
   332  3.3100000000000D+00  0.0000000000000D+00  0.0000000000000D+00
   333  3.3200000000000D+00  0.0000000000000D+00  0.0000000000000D+00
   334  3.3300000000000D+00  0.0000000000000D+00  0.0000000000000D+00
   335  3.3400000000000D+00  0.0000000000000D+00  0.0000000000000D+00
   336  3.3500000000000D+00  0.0000000000000D+00  0.0000000000000D+00
   337  3.3600000000000D+00  0.0000000000000D+00  0.0000000000000D+00
   338  3.3700000000000D+00  0.0000000000000D+00  0.0000000000000D+00
   339  3.3800000000000D+00  0.0000000000000D+00  0.0000000000000D+00
   340  3.3900000000000D+00  0.0000000000000D+00  0.0000000000000D+00
   341  3.4000000000000D+00  0.0000000000000D+00  0.0000000000000D+00
   342  3.4100000000000D+00  0.0000000000000D+00  0.0000000000000D+00
   343  3.4200000000000D+00  0.0000000000000D+00  0.0000000000000D+00
   344  3.4300000000000D+00  0.0000000000000D+00  0.0000000000000D+00
   345  3.4400000000000D+00  0.0000000000000D+00  0.0000000000000D+00
   346  3.4500000000000D+00  0.0000000000000D+00  0.0000000000000D+00
   347  3.4600000000000D+00  0.0000000000000D+00  0.0000000000000D+00
   348  3.4700000000000D+00  0.0000000000000D+00  0.0000000000000D+00
   349  3.4800000000000D+00  0.0000000000000D+00  0.0000000000000D+00
   350  3.4900000000000D+00  0.0000000000000D+00  0.0000000000000D+00
   351  3.5000000000000D+00  0.0000000000000D+00  0.0000000000000D+00
   352  3.5100000000000D+00  0.0000000000000D+00  0.0000000000000D+00
   353  3.5200000000000D+00  0.0000000000000D+00  0.0000000000000D+00
   354  3.5300000000000D+00  0.0000000000000D+00  0.0000000000000D+00
   355  3.5400000000000D+00  0.0000000000000D+00  0.0000000000000D+00
   356  3.5500000000000D+00  0.0000000000000D+00  0.0000000000000D+00
   357  3.5600000000000D+00  0.0000000000000D+00  0.0000000000000D+00
   358  3.5700000000000D+00  0.0000000000000D+00  0.0000000000000D+00
   359  3.5800000000000D+00  0.0000000000000D+00  0.0000000000000D+00
   360  3.5900000000000D+00  0.0000000000000D+00  0.0000000000000D+00
   361  3.6000000000000D+00  0.0000000000000D+00  0.0000000000000D+00
   362  3.6100000000000D+00  0.0000000000000D+00  0.0000000000000D+00
   363  3.6200000000000D+00  0.0000000000000D+00  0.0000000000000D+00
   364  3.6300000000000D+00  0.0000000000000D+00  0.0000000000000D+00
   365  3.6400000000000D+00  0.0000000000000D+00  0.0000000000000D+00
   366  3.6500000000000D+00  0.0000000000000D+00  0.0000000000000D+00
   367  3.6600000000000D+00  0.0000000000000D+00  0.0000000000000D+00
   368  3.6700000000000D+00  0.0000000000000D+00  0.0000000000000D+00
   369  3.6800000000000D+00  0.0000000000000D+00  0.0000000000000D+00
   370  3.6900000000000D+00  0.0000000000000D+00  0.0000000000000D+00
   371  3.7000000000000D+00  0.0000000000000D+00  0.0000000000000D+00
   372  3.7100000000000D+00  0.0000000000000D+00  0.0000000000000D+00
   373  3.7200000000000D+00  0.0000000000000D+00  0.0000000000000D+00
   374  3.7300000000000D+00  0.0000000000000D+00  0.0000000000000D+00
   375  3.7400000000000D+00  0.0000000000000D+00  0.0000000000000D+00
   376  3.7500000000000D+00  0.0000000000000D+00  0.0000000000000D+00
   377  3.7600000000000D+00  0.0000000000000D+00  0.0000000000000D+00
   378  3.7700000000000D+00  0.0000000000000D+00  0.0000000000000D+00
   379  3.7800000000000D+00  0.0000000000000D+00  0.0000000000000D+00
   380  3.7900000000000D+00  0.0000000000000D+00  0.0000000000000D+00
   381  3.8000000000000D+00  0.0000000000000D+00  0.0000000000000D+00
   382  3.8100000000000D+00  0.0000000000000D+00  0.0000000000000D+00
   383  3.8200000000000D+00  0.0000000000000D+00  0.0000000000000D+00
   384  3.8300000000000D+00  0.0000000000000D+00  0.0000000000000D+00
   385  3.8400000000000D+00  0.0000000000000D+00  0.0000000000000D+00
   386  3.8500000000000D+00  0.0000000000000D+00  0.0000000000000D+00
   387  3.8600000000000D+00  0.0000000000000D+00  0.0000000000000D+00
   388  3.8700000000000D+00  0.0000000000000D+00  0.0000000000000D+00
   389  3.8800000000000D+00  0.0000000000000D+00  0.0000000000000D+00
   390  3.8900000000000D+00  0.0000000000000D+00  0.0000000000000D+00
   391  3.9000000000000D+00  0.0000000000000D+00  0.0000000000000D+00
   392  3.9100000000000D+00  0.0000000000000D+00  0.0000000000000D+00
   393  3.9200000000000D+00  0.0000000000000D+00  0.0000000000000D+00
   394  3.9300000000000D+00  0.0000000000000D+00  0.0000000000000D+00
   395  3.9400000000000D+00  0.0000000000000D+00  0.0000000000000D+00
   396  3.9500000000000D+00  0.0000000000000D+00  0.0000000000000D+00
   397  3.9600000000000D+00  0.0000000000000D+00  0.0000000000000D+00
   398  3.9700000000000D+00  0.0000000000000D+00  0.0000000000000D+00
   399  3.9800000000000D+00  0.0000000000000D+00  0.0000000000000D+00
   400  3.9900000000000D+00  0.0000000000000D+00  0.0000000000000D+00
   401  4.0000000000000D+00  0.0000000000000D+00  0.0000000000000D+00
   402  4.0100000000000D+00  0.0000000000000D+00  0.0000000000000D+00
   403  4.0200000000000D+00  0.0000000000000D+00  0.0000000000000D+00
   404  4.0300000000000D+00  0.0000000000000D+00  0.0000000000000D+00
   405  4.0400000000000D+00  0.0000000000000D+00  0.0000000000000D+00
   406  4.0500000000000D+00  0.0000000000000D+00  0.0000000000000D+00
   407  4.0600000000000D+00  0.0000000000000D+00  0.0000000000000D+00
   408  4.0700000000000D+00  0.0000000000000D+00  0.0000000000000D+00
   409  4.0800000000000D+00  0.0000000000000D+00  0.0000000000000D+00
   410  4.0900000000000D+00  0.0000000000000D+00  0.0000000000000D+00
   411  4.1000000000000D+00  0.0000000000000D+00  0.0000000000000D+00
   412  4.1100000000000D+00  0.0000000000000D+00  0.0000000000000D+00
   413  4.1200000000000D+00  0.0000000000000D+00  0.0000000000000D+00
   414  4.1300000000000D+00  0.0000000000000D+00  0.0000000000000D+00
   415  4.1400000000000D+00  0.0000000000000D+00  0.0000000000000D+00
   416  4.1500000000000D+00  0.0000000000000D+00  0.0000000000000D+00
   417  4.1600000000000D+00  0.0000000000000D+00  0.0000000000000D+00
   418  4.1700000000000D+00  0.0000000000000D+00  0.0000000000000D+00
   419  4.1800000000000D+00  0.0000000000000D+00  0.0000000000000D+00
   420  4.1900000000000D+00  0.0000000000000D+00  0.0000000000000D+00
   421  4.2000000000000D+00  0.0000000000000D+00  0.0000000000000D+00
   422  4.2100000000000D+00  0.0000000000000D+00  0.0000000000000D+00
   423  4.2200000000000D+00  0.0000000000000D+00  0.0000000000000D+00