<UPF version="2.0.1">
  <PP_INFO>

 This pseudopotential file has been produced using the code
 ONCVPSP  (Optimized Norm-Conservinng Vanderbilt PSeudopotential)
 scalar-relativistic version 3.3.0 08/16/2017 by D. R. Hamann
 The code is available through a link at URL www.mat-simresearch.com.
 Documentation with the package provides a full discription of the
 input data below.


 While it is not required under the terms of the GNU GPL, it is
 suggested that you cite D. R. Hamann, Phys. Rev. B 88, 085117 (2013)
 in any publication using these pseudopotentials.

    <PP_INPUTFILE>
# ATOM AND REFERENCE CONFIGURATION
# atsym  z   nc   nv     iexc    psfile
  He  2.00    0    1       3      both
#
#   n    l    f        energy (Ha)
    1    0    2.00
#
# PSEUDOPOTENTIAL AND OPTIMIZATION
# lmax
    1
#
#   l,   rc,      ep,       ncon, nbas, qcut
    0   1.25000  -0.57023    4    8   9.40000
    1   1.13000   0.05000    4    7   9.40000
#
# LOCAL POTENTIAL
# lloc, lpopt,  rc(5),   dvloc0
    4    5   1.00000      0.00000
#
# VANDERBILT-KLEINMAN-BYLANDER PROJECTORs
# l, nproj, debl
    0    2   1.00000
    1    1   1.00000
#
# MODEL CORE CHARGE
# icmod, fcfact, rcfact
    0   0.00000   0.00000
#
# LOG DERIVATIVE ANALYSIS
# epsh1, epsh2, depsh
  -12.00   12.00    0.02
#
# OUTPUT GRID
# rlmax, drl
    6.00    0.01
#
# TEST CONFIGURATIONS
# ncnf
    0
# nvcnf
#   n    l    f
    </PP_INPUTFILE>
  </PP_INFO>
  <!--                               -->
  <!-- END OF HUMAN READABLE SECTION -->
  <!--                               -->
    <PP_HEADER
       generated="Generated using ONCVPSP code by D. R. Hamann"
       author="anonymous"
       date="220408"
       comment=""
       element="He"
       pseudo_type="NC"
       relativistic="scalar"
       is_ultrasoft="F"
       is_paw="F"
       is_coulomb="F"
       has_so="F"
       has_wfc="F"
       has_gipaw="F"
       core_correction="F"
       functional="PZ"
       z_valence="    2.00"
       total_psenergy="  -5.60832138480E+00"
       rho_cutoff="   7.31000000000E+00"
       l_max="1"
       l_local="-1"
       mesh_size="   732"
       number_of_wfc="1"
       number_of_proj="3"/>
 <PP_MESH>
   <PP_R type="real"  size=" 732" columns="8">
    0.0000    0.0100    0.0200    0.0300    0.0400    0.0500    0.0600    0.0700
    0.0800    0.0900    0.1000    0.1100    0.1200    0.1300    0.1400    0.1500
    0.1600    0.1700    0.1800    0.1900    0.2000    0.2100    0.2200    0.2300
    0.2400    0.2500    0.2600    0.2700    0.2800    0.2900    0.3000    0.3100
    0.3200    0.3300    0.3400    0.3500    0.3600    0.3700    0.3800    0.3900
    0.4000    0.4100    0.4200    0.4300    0.4400    0.4500    0.4600    0.4700
    0.4800    0.4900    0.5000    0.5100    0.5200    0.5300    0.5400    0.5500
    0.5600    0.5700    0.5800    0.5900    0.6000    0.6100    0.6200    0.6300
    0.6400    0.6500    0.6600    0.6700    0.6800    0.6900    0.7000    0.7100
    0.7200    0.7300    0.7400    0.7500    0.7600    0.7700    0.7800    0.7900
    0.8000    0.8100    0.8200    0.8300    0.8400    0.8500    0.8600    0.8700
    0.8800    0.8900    0.9000    0.9100    0.9200    0.9300    0.9400    0.9500
    0.9600    0.9700    0.9800    0.9900    1.0000    1.0100    1.0200    1.0300
    1.0400    1.0500    1.0600    1.0700    1.0800    1.0900    1.1000    1.1100
    1.1200    1.1300    1.1400    1.1500    1.1600    1.1700    1.1800    1.1900
    1.2000    1.2100    1.2200    1.2300    1.2400    1.2500    1.2600    1.2700
    1.2800    1.2900    1.3000    1.3100    1.3200    1.3300    1.3400    1.3500
    1.3600    1.3700    1.3800    1.3900    1.4000    1.4100    1.4200    1.4300
    1.4400    1.4500    1.4600    1.4700    1.4800    1.4900    1.5000    1.5100
    1.5200    1.5300    1.5400    1.5500    1.5600    1.5700    1.5800    1.5900
    1.6000    1.6100    1.6200    1.6300    1.6400    1.6500    1.6600    1.6700
    1.6800    1.6900    1.7000    1.7100    1.7200    1.7300    1.7400    1.7500
    1.7600    1.7700    1.7800    1.7900    1.8000    1.8100    1.8200    1.8300
    1.8400    1.8500    1.8600    1.8700    1.8800    1.8900    1.9000    1.9100
    1.9200    1.9300    1.9400    1.9500    1.9600    1.9700    1.9800    1.9900
    2.0000    2.0100    2.0200    2.0300    2.0400    2.0500    2.0600    2.0700
    2.0800    2.0900    2.1000    2.1100    2.1200    2.1300    2.1400    2.1500
    2.1600    2.1700    2.1800    2.1900    2.2000    2.2100    2.2200    2.2300
    2.2400    2.2500    2.2600    2.2700    2.2800    2.2900    2.3000    2.3100
    2.3200    2.3300    2.3400    2.3500    2.3600    2.3700    2.3800    2.3900
    2.4000    2.4100    2.4200    2.4300    2.4400    2.4500    2.4600    2.4700
    2.4800    2.4900    2.5000    2.5100    2.5200    2.5300    2.5400    2.5500
    2.5600    2.5700    2.5800    2.5900    2.6000    2.6100    2.6200    2.6300
    2.6400    2.6500    2.6600    2.6700    2.6800    2.6900    2.7000    2.7100
    2.7200    2.7300    2.7400    2.7500    2.7600    2.7700    2.7800    2.7900
    2.8000    2.8100    2.8200    2.8300    2.8400    2.8500    2.8600    2.8700
    2.8800    2.8900    2.9000    2.9100    2.9200    2.9300    2.9400    2.9500
    2.9600    2.9700    2.9800    2.9900    3.0000    3.0100    3.0200    3.0300
    3.0400    3.0500    3.0600    3.0700    3.0800    3.0900    3.1000    3.1100
    3.1200    3.1300    3.1400    3.1500    3.1600    3.1700    3.1800    3.1900
    3.2000    3.2100    3.2200    3.2300    3.2400    3.2500    3.2600    3.2700
    3.2800    3.2900    3.3000    3.3100    3.3200    3.3300    3.3400    3.3500
    3.3600    3.3700    3.3800    3.3900    3.4000    3.4100    3.4200    3.4300
    3.4400    3.4500    3.4600    3.4700    3.4800    3.4900    3.5000    3.5100
    3.5200    3.5300    3.5400    3.5500    3.5600    3.5700    3.5800    3.5900
    3.6000    3.6100    3.6200    3.6300    3.6400    3.6500    3.6600    3.6700
    3.6800    3.6900    3.7000    3.7100    3.7200    3.7300    3.7400    3.7500
    3.7600    3.7700    3.7800    3.7900    3.8000    3.8100    3.8200    3.8300
    3.8400    3.8500    3.8600    3.8700    3.8800    3.8900    3.9000    3.9100
    3.9200    3.9300    3.9400    3.9500    3.9600    3.9700    3.9800    3.9900
    4.0000    4.0100    4.0200    4.0300    4.0400    4.0500    4.0600    4.0700
    4.0800    4.0900    4.1000    4.1100    4.1200    4.1300    4.1400    4.1500
    4.1600    4.1700    4.1800    4.1900    4.2000    4.2100    4.2200    4.2300
    4.2400    4.2500    4.2600    4.2700    4.2800    4.2900    4.3000    4.3100
    4.3200    4.3300    4.3400    4.3500    4.3600    4.3700    4.3800    4.3900
    4.4000    4.4100    4.4200    4.4300    4.4400    4.4500    4.4600    4.4700
    4.4800    4.4900    4.5000    4.5100    4.5200    4.5300    4.5400    4.5500
    4.5600    4.5700    4.5800    4.5900    4.6000    4.6100    4.6200    4.6300
    4.6400    4.6500    4.6600    4.6700    4.6800    4.6900    4.7000    4.7100
    4.7200    4.7300    4.7400    4.7500    4.7600    4.7700    4.7800    4.7900
    4.8000    4.8100    4.8200    4.8300    4.8400    4.8500    4.8600    4.8700
    4.8800    4.8900    4.9000    4.9100    4.9200    4.9300    4.9400    4.9500
    4.9600    4.9700    4.9800    4.9900    5.0000    5.0100    5.0200    5.0300
    5.0400    5.0500    5.0600    5.0700    5.0800    5.0900    5.1000    5.1100
    5.1200    5.1300    5.1400    5.1500    5.1600    5.1700    5.1800    5.1900
    5.2000    5.2100    5.2200    5.2300    5.2400    5.2500    5.2600    5.2700
    5.2800    5.2900    5.3000    5.3100    5.3200    5.3300    5.3400    5.3500
    5.3600    5.3700    5.3800    5.3900    5.4000    5.4100    5.4200    5.4300
    5.4400    5.4500    5.4600    5.4700    5.4800    5.4900    5.5000    5.5100
    5.5200    5.5300    5.5400    5.5500    5.5600    5.5700    5.5800    5.5900
    5.6000    5.6100    5.6200    5.6300    5.6400    5.6500    5.6600    5.6700
    5.6800    5.6900    5.7000    5.7100    5.7200    5.7300    5.7400    5.7500
    5.7600    5.7700    5.7800    5.7900    5.8000    5.8100    5.8200    5.8300
    5.8400    5.8500    5.8600    5.8700    5.8800    5.8900    5.9000    5.9100
    5.9200    5.9300    5.9400    5.9500    5.9600    5.9700    5.9800    5.9900
    6.0000    6.0100    6.0200    6.0300    6.0400    6.0500    6.0600    6.0700
    6.0800    6.0900    6.1000    6.1100    6.1200    6.1300    6.1400    6.1500
    6.1600    6.1700    6.1800    6.1900    6.2000    6.2100    6.2200    6.2300
    6.2400    6.2500    6.2600    6.2700    6.2800    6.2900    6.3000    6.3100
    6.3200    6.3300    6.3400    6.3500    6.3600    6.3700    6.3800    6.3900
    6.4000    6.4100    6.4200    6.4300    6.4400    6.4500    6.4600    6.4700
    6.4800    6.4900    6.5000    6.5100    6.5200    6.5300    6.5400    6.5500
    6.5600    6.5700    6.5800    6.5900    6.6000    6.6100    6.6200    6.6300
    6.6400    6.6500    6.6600    6.6700    6.6800    6.6900    6.7000    6.7100
    6.7200    6.7300    6.7400    6.7500    6.7600    6.7700    6.7800    6.7900
    6.8000    6.8100    6.8200    6.8300    6.8400    6.8500    6.8600    6.8700
    6.8800    6.8900    6.9000    6.9100    6.9200    6.9300    6.9400    6.9500
    6.9600    6.9700    6.9800    6.9900    7.0000    7.0100    7.0200    7.0300
    7.0400    7.0500    7.0600    7.0700    7.0800    7.0900    7.1000    7.1100
    7.1200    7.1300    7.1400    7.1500    7.1600    7.1700    7.1800    7.1900
    7.2000    7.2100    7.2200    7.2300    7.2400    7.2500    7.2600    7.2700
    7.2800    7.2900    7.3000    7.3100
   </PP_R>
   <PP_RAB type="real"  size=" 732" columns="8">
    0.0100    0.0100    0.0100    0.0100    0.0100    0.0100    0.0100    0.0100
    0.0100    0.0100    0.0100    0.0100    0.0100    0.0100    0.0100    0.0100
    0.0100    0.0100    0.0100    0.0100    0.0100    0.0100    0.0100    0.0100
    0.0100    0.0100    0.0100    0.0100    0.0100    0.0100    0.0100    0.0100
    0.0100    0.0100    0.0100    0.0100    0.0100    0.0100    0.0100    0.0100
    0.0100    0.0100    0.0100    0.0100    0.0100    0.0100    0.0100    0.0100
    0.0100    0.0100    0.0100    0.0100    0.0100    0.0100    0.0100    0.0100
    0.0100    0.0100    0.0100    0.0100    0.0100    0.0100    0.0100    0.0100
    0.0100    0.0100    0.0100    0.0100    0.0100    0.0100    0.0100    0.0100
    0.0100    0.0100    0.0100    0.0100    0.0100    0.0100    0.0100    0.0100
    0.0100    0.0100    0.0100    0.0100    0.0100    0.0100    0.0100    0.0100
    0.0100    0.0100    0.0100    0.0100    0.0100    0.0100    0.0100    0.0100
    0.0100    0.0100    0.0100    0.0100    0.0100    0.0100    0.0100    0.0100
    0.0100    0.0100    0.0100    0.0100    0.0100    0.0100    0.0100    0.0100
    0.0100    0.0100    0.0100    0.0100    0.0100    0.0100    0.0100    0.0100
    0.0100    0.0100    0.0100    0.0100    0.0100    0.0100    0.0100    0.0100
    0.0100    0.0100    0.0100    0.0100    0.0100    0.0100    0.0100    0.0100
    0.0100    0.0100    0.0100    0.0100    0.0100    0.0100    0.0100    0.0100
    0.0100    0.0100    0.0100    0.0100    0.0100    0.0100    0.0100    0.0100
    0.0100    0.0100    0.0100    0.0100    0.0100    0.0100    0.0100    0.0100
    0.0100    0.0100    0.0100    0.0100    0.0100    0.0100    0.0100    0.0100
    0.0100    0.0100    0.0100    0.0100    0.0100    0.0100    0.0100    0.0100
    0.0100    0.0100    0.0100    0.0100    0.0100    0.0100    0.0100    0.0100
    0.0100    0.0100    0.0100    0.0100    0.0100    0.0100    0.0100    0.0100
    0.0100    0.0100    0.0100    0.0100    0.0100    0.0100    0.0100    0.0100
    0.0100    0.0100    0.0100    0.0100    0.0100    0.0100    0.0100    0.0100
    0.0100    0.0100    0.0100    0.0100    0.0100    0.0100    0.0100    0.0100
    0.0100    0.0100    0.0100    0.0100    0.0100    0.0100    0.0100    0.0100
    0.0100    0.0100    0.0100    0.0100    0.0100    0.0100    0.0100    0.0100
    0.0100    0.0100    0.0100    0.0100    0.0100    0.0100    0.0100    0.0100
    0.0100    0.0100    0.0100    0.0100    0.0100    0.0100    0.0100    0.0100
    0.0100    0.0100    0.0100    0.0100    0.0100    0.0100    0.0100    0.0100
    0.0100    0.0100    0.0100    0.0100    0.0100    0.0100    0.0100    0.0100
    0.0100    0.0100    0.0100    0.0100    0.0100    0.0100    0.0100    0.0100
    0.0100    0.0100    0.0100    0.0100    0.0100    0.0100    0.0100    0.0100
    0.0100    0.0100    0.0100    0.0100    0.0100    0.0100    0.0100    0.0100
    0.0100    0.0100    0.0100    0.0100    0.0100    0.0100    0.0100    0.0100
    0.0100    0.0100    0.0100    0.0100    0.0100    0.0100    0.0100    0.0100
    0.0100    0.0100    0.0100    0.0100    0.0100    0.0100    0.0100    0.0100
    0.0100    0.0100    0.0100    0.0100    0.0100    0.0100    0.0100    0.0100
    0.0100    0.0100    0.0100    0.0100    0.0100    0.0100    0.0100    0.0100
    0.0100    0.0100    0.0100    0.0100    0.0100    0.0100    0.0100    0.0100
    0.0100    0.0100    0.0100    0.0100    0.0100    0.0100    0.0100    0.0100
    0.0100    0.0100    0.0100    0.0100    0.0100    0.0100    0.0100    0.0100
    0.0100    0.0100    0.0100    0.0100    0.0100    0.0100    0.0100    0.0100
    0.0100    0.0100    0.0100    0.0100    0.0100    0.0100    0.0100    0.0100
    0.0100    0.0100    0.0100    0.0100    0.0100    0.0100    0.0100    0.0100
    0.0100    0.0100    0.0100    0.0100    0.0100    0.0100    0.0100    0.0100
    0.0100    0.0100    0.0100    0.0100    0.0100    0.0100    0.0100    0.0100
    0.0100    0.0100    0.0100    0.0100    0.0100    0.0100    0.0100    0.0100
    0.0100    0.0100    0.0100    0.0100    0.0100    0.0100    0.0100    0.0100
    0.0100    0.0100    0.0100    0.0100    0.0100    0.0100    0.0100    0.0100
    0.0100    0.0100    0.0100    0.0100    0.0100    0.0100    0.0100    0.0100
    0.0100    0.0100    0.0100    0.0100    0.0100    0.0100    0.0100    0.0100
    0.0100    0.0100    0.0100    0.0100    0.0100    0.0100    0.0100    0.0100
    0.0100    0.0100    0.0100    0.0100    0.0100    0.0100    0.0100    0.0100
    0.0100    0.0100    0.0100    0.0100    0.0100    0.0100    0.0100    0.0100
    0.0100    0.0100    0.0100    0.0100    0.0100    0.0100    0.0100    0.0100
    0.0100    0.0100    0.0100    0.0100    0.0100    0.0100    0.0100    0.0100
    0.0100    0.0100    0.0100    0.0100    0.0100    0.0100    0.0100    0.0100
    0.0100    0.0100    0.0100    0.0100    0.0100    0.0100    0.0100    0.0100
    0.0100    0.0100    0.0100    0.0100    0.0100    0.0100    0.0100    0.0100
    0.0100    0.0100    0.0100    0.0100    0.0100    0.0100    0.0100    0.0100
    0.0100    0.0100    0.0100    0.0100    0.0100    0.0100    0.0100    0.0100
    0.0100    0.0100    0.0100    0.0100    0.0100    0.0100    0.0100    0.0100
    0.0100    0.0100    0.0100    0.0100    0.0100    0.0100    0.0100    0.0100
    0.0100    0.0100    0.0100    0.0100    0.0100    0.0100    0.0100    0.0100
    0.0100    0.0100    0.0100    0.0100    0.0100    0.0100    0.0100    0.0100
    0.0100    0.0100    0.0100    0.0100    0.0100    0.0100    0.0100    0.0100
    0.0100    0.0100    0.0100    0.0100    0.0100    0.0100    0.0100    0.0100
    0.0100    0.0100    0.0100    0.0100    0.0100    0.0100    0.0100    0.0100
    0.0100    0.0100    0.0100    0.0100    0.0100    0.0100    0.0100    0.0100
    0.0100    0.0100    0.0100    0.0100    0.0100    0.0100    0.0100    0.0100
    0.0100    0.0100    0.0100    0.0100    0.0100    0.0100    0.0100    0.0100
    0.0100    0.0100    0.0100    0.0100    0.0100    0.0100    0.0100    0.0100
    0.0100    0.0100    0.0100    0.0100    0.0100    0.0100    0.0100    0.0100
    0.0100    0.0100    0.0100    0.0100    0.0100    0.0100    0.0100    0.0100
    0.0100    0.0100    0.0100    0.0100    0.0100    0.0100    0.0100    0.0100
    0.0100    0.0100    0.0100    0.0100    0.0100    0.0100    0.0100    0.0100
    0.0100    0.0100    0.0100    0.0100    0.0100    0.0100    0.0100    0.0100
    0.0100    0.0100    0.0100    0.0100    0.0100    0.0100    0.0100    0.0100
    0.0100    0.0100    0.0100    0.0100    0.0100    0.0100    0.0100    0.0100
    0.0100    0.0100    0.0100    0.0100    0.0100    0.0100    0.0100    0.0100
    0.0100    0.0100    0.0100    0.0100    0.0100    0.0100    0.0100    0.0100
    0.0100    0.0100    0.0100    0.0100    0.0100    0.0100    0.0100    0.0100
    0.0100    0.0100    0.0100    0.0100    0.0100    0.0100    0.0100    0.0100
    0.0100    0.0100    0.0100    0.0100    0.0100    0.0100    0.0100    0.0100
    0.0100    0.0100    0.0100    0.0100    0.0100    0.0100    0.0100    0.0100
    0.0100    0.0100    0.0100    0.0100    0.0100    0.0100    0.0100    0.0100
    0.0100    0.0100    0.0100    0.0100    0.0100    0.0100    0.0100    0.0100
    0.0100    0.0100    0.0100    0.0100    0.0100    0.0100    0.0100    0.0100
    0.0100    0.0100    0.0100    0.0100
   </PP_RAB>
 </PP_MESH>
  <PP_LOCAL type="real"  size=" 732" columns="4">
   -8.7516270327E+00   -8.7506806295E+00   -8.7478423537E+00   -8.7431151375E+00
   -8.7365038482E+00   -8.7280152808E+00   -8.7176581427E+00   -8.7054430332E+00
   -8.6913824172E+00   -8.6754905958E+00   -8.6577836721E+00   -8.6382795129E+00
   -8.6169977072E+00   -8.5939595202E+00   -8.5691878452E+00   -8.5427071511E+00
   -8.5145434283E+00   -8.4847241313E+00   -8.4532781191E+00   -8.4202355943E+00
   -8.3856280398E+00   -8.3494881543E+00   -8.3118497870E+00   -8.2727478715E+00
   -8.2322183589E+00   -8.1902981510E+00   -8.1470250333E+00   -8.1024376088E+00
   -8.0565752319E+00   -8.0094779432E+00   -7.9611864057E+00   -7.9117418420E+00
   -7.8611859726E+00   -7.8095609564E+00   -7.7569093326E+00   -7.7032739644E+00
   -7.6486979849E+00   -7.5932247447E+00   -7.5368977620E+00   -7.4797606746E+00
   -7.4218571938E+00   -7.3632310613E+00   -7.3039260070E+00   -7.2439857098E+00
   -7.1834537601E+00   -7.1223736244E+00   -7.0607886113E+00   -6.9987418397E+00
   -6.9362762083E+00   -6.8734343668E+00   -6.8102586883E+00   -6.7467912430E+00
   -6.6830737724E+00   -6.6191476654E+00   -6.5550539340E+00   -6.4908331902E+00
   -6.4265256232E+00   -6.3621709763E+00   -6.2978085246E+00   -6.2334770521E+00
   -6.1692148285E+00   -6.1050595856E+00   -6.0410484937E+00   -5.9772181362E+00
   -5.9136044845E+00   -5.8502428715E+00   -5.7871679635E+00   -5.7244137322E+00
   -5.6620134241E+00   -5.5999995298E+00   -5.5384037510E+00   -5.4772569667E+00
   -5.4165893089E+00   -5.3564291860E+00   -5.2968031101E+00   -5.2376628705E+00
   -5.1791409128E+00   -5.1212322435E+00   -5.0639651226E+00   -5.0073616966E+00
   -4.9514437121E+00   -4.8962316037E+00   -4.8417445008E+00   -4.7880001734E+00
   -4.7350149780E+00   -4.6828038003E+00   -4.6313799973E+00   -4.5807553373E+00
   -4.5309399386E+00   -4.4819422067E+00   -4.4337687694E+00   -4.3864244113E+00
   -4.3399120065E+00   -4.2942324491E+00   -4.2493845837E+00   -4.2053651334E+00
   -4.1621686269E+00   -4.1197873243E+00   -4.0782111410E+00   -4.0374275700E+00
   -3.9974216344E+00   -3.9581756830E+00   -3.9196698481E+00   -3.8818836712E+00
   -3.8447975454E+00   -3.8083927150E+00   -3.7726512010E+00   -3.7375557628E+00
   -3.7030898533E+00   -3.6692375741E+00   -3.6359836336E+00   -3.6033133073E+00
   -3.5712123999E+00   -3.5396672094E+00   -3.5086644930E+00   -3.4781914351E+00
   -3.4482356167E+00   -3.4187849873E+00   -3.3898278377E+00   -3.3613527756E+00
   -3.3333487020E+00   -3.3058047903E+00   -3.2787104661E+00   -3.2520553897E+00
   -3.2258294401E+00   -3.2000226996E+00   -3.1746254416E+00   -3.1496281235E+00
   -3.1250214057E+00   -3.1007961882E+00   -3.0769436694E+00   -3.0534553173E+00
   -3.0303228541E+00   -3.0075382522E+00   -2.9850937235E+00   -2.9629817107E+00
   -2.9411948788E+00   -2.9197261070E+00   -2.8985684808E+00   -2.8777152848E+00
   -2.8571599953E+00   -2.8368962739E+00   -2.8169179606E+00   -2.7972190676E+00
   -2.7777937738E+00   -2.7586364182E+00   -2.7397414953E+00   -2.7211036493E+00
   -2.7027176690E+00   -2.6845784832E+00   -2.6666811561E+00   -2.6490208823E+00
   -2.6315929832E+00   -2.6143929023E+00   -2.5974162016E+00   -2.5806585574E+00
   -2.5641157572E+00   -2.5477836956E+00   -2.5316583711E+00   -2.5157358831E+00
   -2.5000124282E+00   -2.4844842977E+00   -2.4691478745E+00   -2.4539996302E+00
   -2.4390361225E+00   -2.4242539923E+00   -2.4096499619E+00   -2.3952208318E+00
   -2.3809634786E+00   -2.3668748531E+00   -2.3529519778E+00   -2.3391919445E+00
   -2.3255919132E+00   -2.3121491090E+00   -2.2988608213E+00   -2.2857244010E+00
   -2.2727372596E+00   -2.2598968668E+00   -2.2472007493E+00   -2.2346464891E+00
   -2.2222317218E+00   -2.2099541355E+00   -2.1978114687E+00   -2.1858015098E+00
   -2.1739220950E+00   -2.1621711073E+00   -2.1505464753E+00   -2.1390461719E+00
   -2.1276682131E+00   -2.1164106568E+00   -2.1052716021E+00   -2.0942491875E+00
   -2.0833415906E+00   -2.0725470266E+00   -2.0618637476E+00   -2.0512900414E+00
   -2.0408242309E+00   -2.0304646731E+00   -2.0202097580E+00   -2.0100579080E+00
   -2.0000075772E+00   -1.9900572504E+00   -1.9802054423E+00   -1.9704506970E+00
   -1.9607915870E+00   -1.9512267128E+00   -1.9417547021E+00   -1.9323742089E+00
   -1.9230839134E+00   -1.9138825207E+00   -1.9047687608E+00   -1.8957413878E+00
   -1.8867991792E+00   -1.8779409354E+00   -1.8691654794E+00   -1.8604716561E+00
   -1.8518583315E+00   -1.8433243928E+00   -1.8348687476E+00   -1.8264903233E+00
   -1.8181880668E+00   -1.8099609443E+00   -1.8018079404E+00   -1.7937280579E+00
   -1.7857203177E+00   -1.7777837576E+00   -1.7699174330E+00   -1.7621204155E+00
   -1.7543917932E+00   -1.7467306701E+00   -1.7391361657E+00   -1.7316074150E+00
   -1.7241435675E+00   -1.7167437877E+00   -1.7094072541E+00   -1.7021331594E+00
   -1.6949207098E+00   -1.6877691250E+00   -1.6806776378E+00   -1.6736454939E+00
   -1.6666719513E+00   -1.6597562807E+00   -1.6528977646E+00   -1.6460956975E+00
   -1.6393493851E+00   -1.6326581450E+00   -1.6260213053E+00   -1.6194382054E+00
   -1.6129081953E+00   -1.6064306351E+00   -1.6000048957E+00   -1.5936303575E+00
   -1.5873064111E+00   -1.5810324565E+00   -1.5748079032E+00   -1.5686321702E+00
   -1.5625046852E+00   -1.5564248851E+00   -1.5503922153E+00   -1.5444061300E+00
   -1.5384660917E+00   -1.5325715710E+00   -1.5267220468E+00   -1.5209170058E+00
   -1.5151559424E+00   -1.5094383590E+00   -1.5037637650E+00   -1.4981316774E+00
   -1.4925416204E+00   -1.4869931253E+00   -1.4814857303E+00   -1.4760189804E+00
   -1.4705924272E+00   -1.4652056291E+00   -1.4598581508E+00   -1.4545495633E+00
   -1.4492794440E+00   -1.4440473761E+00   -1.4388529491E+00   -1.4336957582E+00
   -1.4285754045E+00   -1.4234914946E+00   -1.4184436409E+00   -1.4134314612E+00
   -1.4084545786E+00   -1.4035126215E+00   -1.3986052237E+00   -1.3937320238E+00
   -1.3888926656E+00   -1.3840867979E+00   -1.3793140741E+00   -1.3745741526E+00
   -1.3698666964E+00   -1.3651913731E+00   -1.3605478547E+00   -1.3559358179E+00
   -1.3513549435E+00   -1.3468049168E+00   -1.3422854273E+00   -1.3377961685E+00
   -1.3333368381E+00   -1.3289071379E+00   -1.3245067735E+00   -1.3201354544E+00
   -1.3157928941E+00   -1.3114788096E+00   -1.3071929218E+00   -1.3029349551E+00
   -1.2987046376E+00   -1.2945017008E+00   -1.2903258798E+00   -1.2861769129E+00
   -1.2820545421E+00   -1.2779585123E+00   -1.2738885719E+00   -1.2698444724E+00
   -1.2658259685E+00   -1.2618328180E+00   -1.2578647816E+00   -1.2539216233E+00
   -1.2500031097E+00   -1.2461090106E+00   -1.2422390984E+00   -1.2383931486E+00
   -1.2345709392E+00   -1.2307722512E+00   -1.2269968680E+00   -1.2232445758E+00
   -1.2195151635E+00   -1.2158084224E+00   -1.2121241465E+00   -1.2084621320E+00
   -1.2048221779E+00   -1.2012040854E+00   -1.1976076582E+00   -1.1940327021E+00
   -1.1904790256E+00   -1.1869464392E+00   -1.1834347557E+00   -1.1799437901E+00
   -1.1764733596E+00   -1.1730232835E+00   -1.1695933833E+00   -1.1661834826E+00
   -1.1627934069E+00   -1.1594229838E+00   -1.1560720430E+00   -1.1527404159E+00
   -1.1494279362E+00   -1.1461344391E+00   -1.1428597620E+00   -1.1396037441E+00
   -1.1363662263E+00   -1.1331470514E+00   -1.1299460639E+00   -1.1267631102E+00
   -1.1235980383E+00   -1.1204506978E+00   -1.1173209403E+00   -1.1142086187E+00
   -1.1111135879E+00   -1.1080357040E+00   -1.1049748251E+00   -1.1019308104E+00
   -1.0989035212E+00   -1.0958928199E+00   -1.0928985704E+00   -1.0899206385E+00
   -1.0869588909E+00   -1.0840131962E+00   -1.0810834242E+00   -1.0781694461E+00
   -1.0752711345E+00   -1.0723883635E+00   -1.0695210084E+00   -1.0666689459E+00
   -1.0638320540E+00   -1.0610102118E+00   -1.0582033001E+00   -1.0554112005E+00
   -1.0526337963E+00   -1.0498709715E+00   -1.0471226119E+00   -1.0443886040E+00
   -1.0416688357E+00   -1.0389631961E+00   -1.0362715754E+00   -1.0335938649E+00
   -1.0309299570E+00   -1.0282797453E+00   -1.0256431244E+00   -1.0230199901E+00
   -1.0204102391E+00   -1.0178137693E+00   -1.0152304796E+00   -1.0126602698E+00
   -1.0101030409E+00   -1.0075586948E+00   -1.0050271343E+00   -1.0025082634E+00
   -1.0000019868E+00   -9.9750821035E-01   -9.9502684077E-01   -9.9255778568E-01
   -9.9010095365E-01   -9.8765625412E-01   -9.8522359746E-01   -9.8280289488E-01
   -9.8039405851E-01   -9.7799700129E-01   -9.7561163704E-01   -9.7323788041E-01
   -9.7087564687E-01   -9.6852485273E-01   -9.6618541509E-01   -9.6385725185E-01
   -9.6154028172E-01   -9.5923442415E-01   -9.5693959940E-01   -9.5465572848E-01
   -9.5238273314E-01   -9.5012053588E-01   -9.4786905994E-01   -9.4562822929E-01
   -9.4339796859E-01   -9.4117820325E-01   -9.3896885935E-01   -9.3676986367E-01
   -9.3458114368E-01   -9.3240262751E-01   -9.3023424398E-01   -9.2807592257E-01
   -9.2592759339E-01   -9.2378918722E-01   -9.2166063545E-01   -9.1954187014E-01
   -9.1743282395E-01   -9.1533343014E-01   -9.1324362262E-01   -9.1116333586E-01
   -9.0909250496E-01   -9.0703106559E-01   -9.0497895400E-01   -9.0293610703E-01
   -9.0090246209E-01   -8.9887795713E-01   -8.9686253067E-01   -8.9485612178E-01
   -8.9285867009E-01   -8.9087011573E-01   -8.8889039941E-01   -8.8691946232E-01
   -8.8495724619E-01   -8.8300369328E-01   -8.8105874633E-01   -8.7912234861E-01
   -8.7719444387E-01   -8.7527497636E-01   -8.7336389080E-01   -8.7146113243E-01
   -8.6956664692E-01   -8.6768038044E-01   -8.6580227963E-01   -8.6393229157E-01
   -8.6207036381E-01   -8.6021644435E-01   -8.5837048163E-01   -8.5653242454E-01
   -8.5470222241E-01   -8.5287982498E-01   -8.5106518244E-01   -8.4925824539E-01
   -8.4745896486E-01   -8.4566729230E-01   -8.4388317954E-01   -8.4210657884E-01
   -8.4033744286E-01   -8.3857572464E-01   -8.3682137764E-01   -8.3507435568E-01
   -8.3333461299E-01   -8.3160210417E-01   -8.2987678418E-01   -8.2815860839E-01
   -8.2644753250E-01   -8.2474351260E-01   -8.2304650514E-01   -8.2135646691E-01
   -8.1967335508E-01   -8.1799712715E-01   -8.1632774097E-01   -8.1466515474E-01
   -8.1300932700E-01   -8.1136021662E-01   -8.0971778281E-01   -8.0808198511E-01
   -8.0645278337E-01   -8.0483013778E-01   -8.0321400884E-01   -8.0160435739E-01
   -8.0000114455E-01   -7.9840433177E-01   -7.9681388080E-01   -7.9522975369E-01
   -7.9365191282E-01   -7.9208032082E-01   -7.9051494066E-01   -7.8895573558E-01
   -7.8740266911E-01   -7.8585570506E-01   -7.8431480755E-01   -7.8277994096E-01
   -7.8125106995E-01   -7.7972815946E-01   -7.7821117470E-01   -7.7670008114E-01
   -7.7519484455E-01   -7.7369543093E-01   -7.7220180656E-01   -7.7071393798E-01
   -7.6923179197E-01   -7.6775533559E-01   -7.6628453614E-01   -7.6481936118E-01
   -7.6335977849E-01   -7.6190575612E-01   -7.6045726236E-01   -7.5901426574E-01
   -7.5757673503E-01   -7.5614463922E-01   -7.5471794755E-01   -7.5329662950E-01
   -7.5188065475E-01   -7.5046999324E-01   -7.4906461512E-01   -7.4766449075E-01
   -7.4626959073E-01   -7.4487988588E-01   -7.4349534723E-01   -7.4211594602E-01
   -7.4074165371E-01   -7.3937244197E-01   -7.3800828268E-01   -7.3664914793E-01
   -7.3529501000E-01   -7.3394584140E-01   -7.3260161481E-01   -7.3126230314E-01
   -7.2992787948E-01   -7.2859831711E-01   -7.2727358952E-01   -7.2595367038E-01
   -7.2463853357E-01   -7.2332815314E-01   -7.2202250334E-01   -7.2072155858E-01
   -7.1942529350E-01   -7.1813368287E-01   -7.1684670168E-01   -7.1556432508E-01
   -7.1428652840E-01   -7.1301328716E-01   -7.1174457704E-01   -7.1048037388E-01
   -7.0922065373E-01   -7.0796539276E-01   -7.0671456736E-01   -7.0546815405E-01
   -7.0422612952E-01   -7.0298847065E-01   -7.0175515444E-01   -7.0052615809E-01
   -6.9930145893E-01   -6.9808103448E-01   -6.9686486238E-01   -6.9565292046E-01
   -6.9444518667E-01   -6.9324163915E-01   -6.9204225616E-01   -6.9084701612E-01
   -6.8965589761E-01   -6.8846887934E-01   -6.8728594018E-01   -6.8610705914E-01
   -6.8493221537E-01   -6.8376138816E-01   -6.8259455697E-01   -6.8143170135E-01
   -6.8027280104E-01   -6.7911783588E-01   -6.7796678586E-01   -6.7681963111E-01
   -6.7567635189E-01   -6.7453692860E-01   -6.7340134176E-01   -6.7226957202E-01
   -6.7114160018E-01   -6.7001740715E-01   -6.6889697396E-01   -6.6778028180E-01
   -6.6666731195E-01   -6.6555804583E-01   -6.6445246500E-01   -6.6335055110E-01
   -6.6225228594E-01   -6.6115765141E-01   -6.6006662954E-01   -6.5897920249E-01
   -6.5789535250E-01   -6.5681506196E-01   -6.5573831337E-01   -6.5466508932E-01
   -6.5359537256E-01   -6.5252914591E-01   -6.5146639231E-01   -6.5040709483E-01
   -6.4935123664E-01   -6.4829880101E-01   -6.4724977133E-01   -6.4620413109E-01
   -6.4516186389E-01   -6.4412295343E-01   -6.4308738353E-01   -6.4205513810E-01
   -6.4102620116E-01   -6.4000055682E-01   -6.3897818931E-01   -6.3795908295E-01
   -6.3694322216E-01   -6.3593059145E-01   -6.3492117546E-01   -6.3391495889E-01