Ne    ONCVPSP-3.3.0  r_core=   1.31204   1.51396
     10.0000      8.0000      220408    zatom,zion,pspd
     8       2   1     4   400     0    pspcod,pspxc,lmax,lloc,mmax,r2well
  3.99000000  0.00000000  0.00000000    rchrg fchrg qchrg
     2     2     0     0     0    nproj
     1     1           extension_switch
   0                         2.6878373683081D+00 -4.9140183419362D-01
     1  0.0000000000000D+00  4.5936532355739D-10  2.3785041991520D-10
     2  1.0000000000000D-02  9.8880080411131D-02  1.4550619462823D-02
     3  2.0000000000000D-02  1.9744052097637D-01  2.9171139294667D-02
     4  3.0000000000000D-02  2.9536242610207D-01  4.3930827820861D-02
     5  4.0000000000000D-02  3.9232839318651D-01  5.8897695144705D-02
     6  5.0000000000000D-02  4.8802327021523D-01  7.4137878638703D-02
     7  6.0000000000000D-02  5.8213492634379D-01  8.9715045787994D-02
     8  7.0000000000000D-02  6.7435503924891D-01  1.0568981988791D-01
     9  8.0000000000000D-02  7.6437990256996D-01  1.2211923385970D-01
    10  9.0000000000000D-02  8.5191125620082D-01  1.3905621715605D-01
    11  1.0000000000000D-01  9.3665714153750D-01  1.5654912038426D-01
    12  1.1000000000000D-01  1.0183327830471D+00  1.7464128188364D-01
    13  1.2000000000000D-01  1.0966614967119D+00  1.9337064005892D-01
    14  1.3000000000000D-01  1.1713756250285D+00  2.1276939479838D-01
    15  1.4000000000000D-01  1.2422174973212D+00  2.3286372079882D-01
    16  1.5000000000000D-01  1.3089404131756D+00  2.5367353508495D-01
    17  1.6000000000000D-01  1.3713096458217D+00  2.7521232045461D-01
    18  1.7000000000000D-01  1.4291034613217D+00  2.9748700600869D-01
    19  1.8000000000000D-01  1.4821141484494D+00  3.2049790534273D-01
    20  1.9000000000000D-01  1.5301490532118D+00  3.4423871239198D-01
    21  2.0000000000000D-01  1.5730316110642D+00  3.6869655433939D-01
    22  2.1000000000000D-01  1.6106023690344D+00  3.9385210042320D-01
    23  2.2000000000000D-01  1.6427199892038D+00  4.1967972492373D-01
    24  2.3000000000000D-01  1.6692622243130D+00  4.4614772207356D-01
    25  2.4000000000000D-01  1.6901268556765D+00  4.7321857012721D-01
    26  2.5000000000000D-01  1.7052325831232D+00  5.0084924135182D-01
    27  2.6000000000000D-01  1.7145198563262D+00  5.2899155426321D-01
    28  2.7000000000000D-01  1.7179516366681D+00  5.5759256403817D-01
    29  2.8000000000000D-01  1.7155140787053D+00  5.8659498668645D-01
    30  2.9000000000000D-01  1.7072171203599D+00  6.1593765227019D-01
    31  3.0000000000000D-01  1.6930949711736D+00  6.4555598221592D-01
    32  3.1000000000000D-01  1.6732064883254D+00  6.7538248557802D-01
    33  3.2000000000000D-01  1.6476354306211D+00  7.0534726898519D-01
    34  3.3000000000000D-01  1.6164905813275D+00  7.3537855493222D-01
    35  3.4000000000000D-01  1.5799057315308D+00  7.6540320307143D-01
    36  3.5000000000000D-01  1.5380395166451D+00  7.9534722920872D-01
    37  3.6000000000000D-01  1.4910750997789D+00  8.2513631681960D-01
    38  3.7000000000000D-01  1.4392196968729D+00  8.5469631606763D-01
    39  3.8000000000000D-01  1.3827039398382D+00  8.8395372553100D-01
    40  3.9000000000000D-01  1.3217810753452D+00  9.1283615211731D-01
    41  4.0000000000000D-01  1.2567259984154D+00  9.4127274497192D-01
    42  4.1000000000000D-01  1.1878341215453D+00  9.6919459955373D-01
    43  4.2000000000000D-01  1.1154200817215D+00  9.9653512846298D-01
    44  4.3000000000000D-01  1.0398162893503D+00  1.0232303960514D+00
    45  4.4000000000000D-01  9.6137132480856D-01  1.0492194143213D+00
    46  4.5000000000000D-01  8.8044819000667D-01  1.0744443981211D+00
    47  4.6000000000000D-01  7.9742242401002D-01  1.0988509781649D+00
    48  4.7000000000000D-01  7.1268009338869D-01  1.1223883709365D+00
    49  4.8000000000000D-01  6.2661566951979D-01  1.1450095050747D+00
    50  4.9000000000000D-01  5.3962980654521D-01  1.1666711043796D+00
    51  5.0000000000000D-01  4.5212703506413D-01  1.1873337281061D+00
    52  5.1000000000000D-01  3.6451338789942D-01  1.2069617697339D+00
    53  5.2000000000000D-01  2.7719397540061D-01  1.2255234159017D+00
    54  5.3000000000000D-01  1.9057052871891D-01  1.2429905676688D+00
    55  5.4000000000000D-01  1.0503893029633D-01  1.2593387267097D+00
    56  5.5000000000000D-01  2.0986751439037D-02  1.2745468494590D+00
    57  5.6000000000000D-01 -6.1209182718288D-02  1.2885971725881D+00
    58  5.7000000000000D-01 -1.4118518031131D-01  1.3014750135192D+00
    59  5.8000000000000D-01 -2.1859300133160D-01  1.3131685499550D+00
    60  5.9000000000000D-01 -2.9310208730246D-01  1.3236685826232D+00
    61  6.0000000000000D-01 -3.6440168204161D-01  1.3329682856002D+00
    62  6.1000000000000D-01 -4.3220282411877D-01  1.3410629486887D+00
    63  6.2000000000000D-01 -4.9624019243165D-01  1.3479497163735D+00
    64  6.3000000000000D-01 -5.5627378735785D-01  1.3536273278712D+00
    65  6.4000000000000D-01 -6.1209043116386D-01  1.3580958627238D+00
    66  6.5000000000000D-01 -6.6350507277167D-01  1.3613564962611D+00
    67  6.6000000000000D-01 -7.1036188358510D-01  1.3634112690734D+00
    68  6.7000000000000D-01 -7.5253513283656D-01  1.3642628744045D+00
    69  6.8000000000000D-01 -7.8992983282616D-01  1.3639144670847D+00
    70  6.9000000000000D-01 -8.2248214647145D-01  1.3623694972910D+00
    71  7.0000000000000D-01 -8.5015955173642D-01  1.3596315720427D+00
    72  7.1000000000000D-01 -8.7296075974819D-01  1.3557043469243D+00
    73  7.2000000000000D-01 -8.9091538572130D-01  1.3505914500769D+00
    74  7.3000000000000D-01 -9.0408337416258D-01  1.3442964400180D+00
    75  7.4000000000000D-01 -9.1255418219546D-01  1.3368227983520D+00
    76  7.5000000000000D-01 -9.1644572720673D-01  1.3281739579128D+00
    77  7.6000000000000D-01 -9.1590310735122D-01  1.3183533663548D+00
    78  7.7000000000000D-01 -9.1109710571154D-01  1.3073645846792D+00
    79  7.8000000000000D-01 -9.0222249111046D-01  1.2952114196558D+00
    80  7.9000000000000D-01 -8.8949613064338D-01  1.2818980885843D+00
    81  8.0000000000000D-01 -8.7315493094842D-01  1.2674294143431D+00
    82  8.1000000000000D-01 -8.5345362702353D-01  1.2518110481962D+00
    83  8.2000000000000D-01 -8.3066243901575D-01  1.2350497173850D+00
    84  8.3000000000000D-01 -8.0506461882778D-01  1.2171534941223D+00
    85  8.4000000000000D-01 -7.7695390959399D-01  1.1981320822358D+00
    86  8.5000000000000D-01 -7.4663194205572D-01  1.1779971173868D+00
    87  8.6000000000000D-01 -7.1440559260147D-01  1.1567624765158D+00
    88  8.7000000000000D-01 -6.8058432822088D-01  1.1344445919489D+00
    89  8.8000000000000D-01 -6.4547756384405D-01  1.1110627654383D+00
    90  8.9000000000000D-01 -6.0939205749428D-01  1.0866394773057D+00
    91  9.0000000000000D-01 -5.7262936837197D-01  1.0612006858223D+00
    92  9.1000000000000D-01 -5.3548340240844D-01  1.0347761119759D+00
    93  9.2000000000000D-01 -4.9823806898720D-01  1.0073995048662D+00
    94  9.3000000000000D-01 -4.6116507143162D-01  9.7910888311339D-01
    95  9.4000000000000D-01 -4.2452185251157D-01  9.4994674787599D-01
    96  9.5000000000000D-01 -3.8854971464471D-01  9.1996026334105D-01
    97  9.6000000000000D-01 -3.5347213265203D-01  8.8920140087550D-01
    98  9.7000000000000D-01 -3.1949327495126D-01  8.5772704340112D-01
    99  9.8000000000000D-01 -2.8679674687225D-01  8.2559904698293D-01
   100  9.9000000000000D-01 -2.5554456742558D-01  7.9288425709264D-01
   101  1.0000000000000D+00 -2.2587638839423D-01  7.5965447751328D-01
   102  1.0100000000000D+00 -1.9790896202091D-01  7.2598639039390D-01
   103  1.0200000000000D+00 -1.7173586090452D-01  6.9196142652772D-01
   104  1.0300000000000D+00 -1.4742745094308D-01  6.5766558552617D-01
   105  1.0400000000000D+00 -1.2503111552026D-01  6.2318920613758D-01
   106  1.0500000000000D+00 -1.0457172630450D-01  5.8862668758321D-01
   107  1.0600000000000D+00 -8.6052353324302D-02  5.5407616338849D-01
   108  1.0700000000000D+00 -6.9455204399633D-02  5.1963912976923D-01
   109  1.0800000000000D+00 -5.4742781384282D-02  4.8542003123052D-01
   110  1.0900000000000D+00 -4.1859238347661D-02  4.5152580656990D-01
   111  1.1000000000000D+00 -3.0731924536115D-02  4.1806539900609D-01
   112  1.1100000000000D+00 -2.1273092743658D-02  3.8514923467132D-01
   113  1.1200000000000D+00 -1.3381751972982D-02  3.5288867411792D-01
   114  1.1300000000000D+00 -6.9456414678748D-03  3.2139544191916D-01
   115  1.1400000000000D+00 -1.8433020025831D-03  2.9078103973086D-01
   116  1.1500000000000D+00  2.0537812264247D-03  2.6115614855691D-01
   117  1.1600000000000D+00  4.8789903752889D-03  2.3263002611769D-01
   118  1.1700000000000D+00  6.7683683365183D-03  2.0530990539492D-01
   119  1.1800000000000D+00  7.8584210785645D-03  1.7930040053354D-01
   120  1.1900000000000D+00  8.2839563254881D-03  1.5470292631236D-01
   121  1.2000000000000D+00  8.1759855087149D-03  1.3161513730303D-01
   122  1.2100000000000D+00  7.6597156068710D-03  1.1013039277620D-01
   123  1.2200000000000D+00  6.8526566285952D-03  9.0337253231034D-02
   124  1.2300000000000D+00  5.8628690791972D-03  7.2319014106882D-02
   125  1.2400000000000D+00  4.7873744689673D-03  5.6153281945617D-02
   126  1.2500000000000D+00  3.7107509089706D-03  4.1911598047077D-02
   127  1.2600000000000D+00  2.7039327927108D-03  2.9659113959981D-02
   128  1.2700000000000D+00  1.8237031176516D-03  1.9458465513883D-02
   129  1.2800000000000D+00  1.1097791760112D-03  1.1350460103221D-02
   130  1.2900000000000D+00  5.8278846970452D-04  5.3507484109981D-03
   131  1.3000000000000D+00  2.7973456989033D-04  1.6700408664985D-03
   132  1.3100000000000D+00  1.5473264063929D-04  1.1839721518502D-04
   133  1.3200000000000D+00  5.9215282316523D-05 -1.3047998605448D-04
   134  1.3300000000000D+00 -6.6162802942147D-06  2.2145763497540D-05
   135  1.3400000000000D+00 -6.2171349569384D-06  2.5689133763652D-05
   136  1.3500000000000D+00  2.6199510300187D-06 -7.5481179839805D-06
   137  1.3600000000000D+00 -1.4339147911332D-08  7.4025528469845D-10
   138  1.3700000000000D+00 -3.5112541165513D-07  1.8126770375541D-08
   139  1.3800000000000D+00  0.0000000000000D+00  0.0000000000000D+00
   140  1.3900000000000D+00  0.0000000000000D+00  0.0000000000000D+00
   141  1.4000000000000D+00  0.0000000000000D+00  0.0000000000000D+00
   142  1.4100000000000D+00  0.0000000000000D+00  0.0000000000000D+00
   143  1.4200000000000D+00  0.0000000000000D+00  0.0000000000000D+00
   144  1.4300000000000D+00  0.0000000000000D+00  0.0000000000000D+00
   145  1.4400000000000D+00  0.0000000000000D+00  0.0000000000000D+00
   146  1.4500000000000D+00  0.0000000000000D+00  0.0000000000000D+00
   147  1.4600000000000D+00  0.0000000000000D+00  0.0000000000000D+00
   148  1.4700000000000D+00  0.0000000000000D+00  0.0000000000000D+00
   149  1.4800000000000D+00  0.0000000000000D+00  0.0000000000000D+00
   150  1.4900000000000D+00  0.0000000000000D+00  0.0000000000000D+00
   151  1.5000000000000D+00  0.0000000000000D+00  0.0000000000000D+00
   152  1.5100000000000D+00  0.0000000000000D+00  0.0000000000000D+00
   153  1.5200000000000D+00  0.0000000000000D+00  0.0000000000000D+00
   154  1.5300000000000D+00  0.0000000000000D+00  0.0000000000000D+00
   155  1.5400000000000D+00  0.0000000000000D+00  0.0000000000000D+00
   156  1.5500000000000D+00  0.0000000000000D+00  0.0000000000000D+00
   157  1.5600000000000D+00  0.0000000000000D+00  0.0000000000000D+00
   158  1.5700000000000D+00  0.0000000000000D+00  0.0000000000000D+00
   159  1.5800000000000D+00  0.0000000000000D+00  0.0000000000000D+00
   160  1.5900000000000D+00  0.0000000000000D+00  0.0000000000000D+00
   161  1.6000000000000D+00  0.0000000000000D+00  0.0000000000000D+00
   162  1.6100000000000D+00  0.0000000000000D+00  0.0000000000000D+00
   163  1.6200000000000D+00  0.0000000000000D+00  0.0000000000000D+00
   164  1.6300000000000D+00  0.0000000000000D+00  0.0000000000000D+00
   165  1.6400000000000D+00  0.0000000000000D+00  0.0000000000000D+00
   166  1.6500000000000D+00  0.0000000000000D+00  0.0000000000000D+00
   167  1.6600000000000D+00  0.0000000000000D+00  0.0000000000000D+00
   168  1.6700000000000D+00  0.0000000000000D+00  0.0000000000000D+00
   169  1.6800000000000D+00  0.0000000000000D+00  0.0000000000000D+00
   170  1.6900000000000D+00  0.0000000000000D+00  0.0000000000000D+00
   171  1.7000000000000D+00  0.0000000000000D+00  0.0000000000000D+00
   172  1.7100000000000D+00  0.0000000000000D+00  0.0000000000000D+00
   173  1.7200000000000D+00  0.0000000000000D+00  0.0000000000000D+00
   174  1.7300000000000D+00  0.0000000000000D+00  0.0000000000000D+00
   175  1.7400000000000D+00  0.0000000000000D+00  0.0000000000000D+00
   176  1.7500000000000D+00  0.0000000000000D+00  0.0000000000000D+00
   177  1.7600000000000D+00  0.0000000000000D+00  0.0000000000000D+00
   178  1.7700000000000D+00  0.0000000000000D+00  0.0000000000000D+00
   179  1.7800000000000D+00  0.0000000000000D+00  0.0000000000000D+00
   180  1.7900000000000D+00  0.0000000000000D+00  0.0000000000000D+00
   181  1.8000000000000D+00  0.0000000000000D+00  0.0000000000000D+00
   182  1.8100000000000D+00  0.0000000000000D+00  0.0000000000000D+00
   183  1.8200000000000D+00  0.0000000000000D+00  0.0000000000000D+00
   184  1.8300000000000D+00  0.0000000000000D+00  0.0000000000000D+00
   185  1.8400000000000D+00  0.0000000000000D+00  0.0000000000000D+00
   186  1.8500000000000D+00  0.0000000000000D+00  0.0000000000000D+00
   187  1.8600000000000D+00  0.0000000000000D+00  0.0000000000000D+00
   188  1.8700000000000D+00  0.0000000000000D+00  0.0000000000000D+00
   189  1.8800000000000D+00  0.0000000000000D+00  0.0000000000000D+00
   190  1.8900000000000D+00  0.0000000000000D+00  0.0000000000000D+00
   191  1.9000000000000D+00  0.0000000000000D+00  0.0000000000000D+00
   192  1.9100000000000D+00  0.0000000000000D+00  0.0000000000000D+00
   193  1.9200000000000D+00  0.0000000000000D+00  0.0000000000000D+00
   194  1.9300000000000D+00  0.0000000000000D+00  0.0000000000000D+00
   195  1.9400000000000D+00  0.0000000000000D+00  0.0000000000000D+00
   196  1.9500000000000D+00  0.0000000000000D+00  0.0000000000000D+00
   197  1.9600000000000D+00  0.0000000000000D+00  0.0000000000000D+00
   198  1.9700000000000D+00  0.0000000000000D+00  0.0000000000000D+00
   199  1.9800000000000D+00  0.0000000000000D+00  0.0000000000000D+00
   200  1.9900000000000D+00  0.0000000000000D+00  0.0000000000000D+00
   201  2.0000000000000D+00  0.0000000000000D+00  0.0000000000000D+00
   202  2.0100000000000D+00  0.0000000000000D+00  0.0000000000000D+00
   203  2.0200000000000D+00  0.0000000000000D+00  0.0000000000000D+00
   204  2.0300000000000D+00  0.0000000000000D+00  0.0000000000000D+00
   205  2.0400000000000D+00  0.0000000000000D+00  0.0000000000000D+00
   206  2.0500000000000D+00  0.0000000000000D+00  0.0000000000000D+00
   207  2.0600000000000D+00  0.0000000000000D+00  0.0000000000000D+00
   208  2.0700000000000D+00  0.0000000000000D+00  0.0000000000000D+00
   209  2.0800000000000D+00  0.0000000000000D+00  0.0000000000000D+00
   210  2.0900000000000D+00  0.0000000000000D+00  0.0000000000000D+00
   211  2.1000000000000D+00  0.0000000000000D+00  0.0000000000000D+00
   212  2.1100000000000D+00  0.0000000000000D+00  0.0000000000000D+00
   213  2.1200000000000D+00  0.0000000000000D+00  0.0000000000000D+00
   214  2.1300000000000D+00  0.0000000000000D+00  0.0000000000000D+00
   215  2.1400000000000D+00  0.0000000000000D+00  0.0000000000000D+00
   216  2.1500000000000D+00  0.0000000000000D+00  0.0000000000000D+00
   217  2.1600000000000D+00  0.0000000000000D+00  0.0000000000000D+00
   218  2.1700000000000D+00  0.0000000000000D+00  0.0000000000000D+00
   219  2.1800000000000D+00  0.0000000000000D+00  0.0000000000000D+00
   220  2.1900000000000D+00  0.0000000000000D+00  0.0000000000000D+00
   221  2.2000000000000D+00  0.0000000000000D+00  0.0000000000000D+00
   222  2.2100000000000D+00  0.0000000000000D+00  0.0000000000000D+00
   223  2.2200000000000D+00  0.0000000000000D+00  0.0000000000000D+00
   224  2.2300000000000D+00  0.0000000000000D+00  0.0000000000000D+00
   225  2.2400000000000D+00  0.0000000000000D+00  0.0000000000000D+00
   226  2.2500000000000D+00  0.0000000000000D+00  0.0000000000000D+00
   227  2.2600000000000D+00  0.0000000000000D+00  0.0000000000000D+00
   228  2.2700000000000D+00  0.0000000000000D+00  0.0000000000000D+00
   229  2.2800000000000D+00  0.0000000000000D+00  0.0000000000000D+00
   230  2.2900000000000D+00  0.0000000000000D+00  0.0000000000000D+00
   231  2.3000000000000D+00  0.0000000000000D+00  0.0000000000000D+00
   232  2.3100000000000D+00  0.0000000000000D+00  0.0000000000000D+00
   233  2.3200000000000D+00  0.0000000000000D+00  0.0000000000000D+00
   234  2.3300000000000D+00  0.0000000000000D+00  0.0000000000000D+00
   235  2.3400000000000D+00  0.0000000000000D+00  0.0000000000000D+00
   236  2.3500000000000D+00  0.0000000000000D+00  0.0000000000000D+00
   237  2.3600000000000D+00  0.0000000000000D+00  0.0000000000000D+00
   238  2.3700000000000D+00  0.0000000000000D+00  0.0000000000000D+00
   239  2.3800000000000D+00  0.0000000000000D+00  0.0000000000000D+00
   240  2.3900000000000D+00  0.0000000000000D+00  0.0000000000000D+00
   241  2.4000000000000D+00  0.0000000000000D+00  0.0000000000000D+00
   242  2.4100000000000D+00  0.0000000000000D+00  0.0000000000000D+00
   243  2.4200000000000D+00  0.0000000000000D+00  0.0000000000000D+00
   244  2.4300000000000D+00  0.0000000000000D+00  0.0000000000000D+00
   245  2.4400000000000D+00  0.0000000000000D+00  0.0000000000000D+00
   246  2.4500000000000D+00  0.0000000000000D+00  0.0000000000000D+00
   247  2.4600000000000D+00  0.0000000000000D+00  0.0000000000000D+00
   248  2.4700000000000D+00  0.0000000000000D+00  0.0000000000000D+00
   249  2.4800000000000D+00  0.0000000000000D+00  0.0000000000000D+00
   250  2.4900000000000D+00  0.0000000000000D+00  0.0000000000000D+00
   251  2.5000000000000D+00  0.0000000000000D+00  0.0000000000000D+00
   252  2.5100000000000D+00  0.0000000000000D+00  0.0000000000000D+00
   253  2.5200000000000D+00  0.0000000000000D+00  0.0000000000000D+00
   254  2.5300000000000D+00  0.0000000000000D+00  0.0000000000000D+00
   255  2.5400000000000D+00  0.0000000000000D+00  0.0000000000000D+00
   256  2.5500000000000D+00  0.0000000000000D+00  0.0000000000000D+00
   257  2.5600000000000D+00  0.0000000000000D+00  0.0000000000000D+00
   258  2.5700000000000D+00  0.0000000000000D+00  0.0000000000000D+00
   259  2.5800000000000D+00  0.0000000000000D+00  0.0000000000000D+00
   260  2.5900000000000D+00  0.0000000000000D+00  0.0000000000000D+00
   261  2.6000000000000D+00  0.0000000000000D+00  0.0000000000000D+00
   262  2.6100000000000D+00  0.0000000000000D+00  0.0000000000000D+00
   263  2.6200000000000D+00  0.0000000000000D+00  0.0000000000000D+00
   264  2.6300000000000D+00  0.0000000000000D+00  0.0000000000000D+00
   265  2.6400000000000D+00  0.0000000000000D+00  0.0000000000000D+00
   266  2.6500000000000D+00  0.0000000000000D+00  0.0000000000000D+00
   267  2.6600000000000D+00  0.0000000000000D+00  0.0000000000000D+00
   268  2.6700000000000D+00  0.0000000000000D+00  0.0000000000000D+00
   269  2.6800000000000D+00  0.0000000000000D+00  0.0000000000000D+00
   270  2.6900000000000D+00  0.0000000000000D+00  0.0000000000000D+00
   271  2.7000000000000D+00  0.0000000000000D+00  0.0000000000000D+00
   272  2.7100000000000D+00  0.0000000000000D+00  0.0000000000000D+00
   273  2.7200000000000D+00  0.0000000000000D+00  0.0000000000000D+00
   274  2.7300000000000D+00  0.0000000000000D+00  0.0000000000000D+00
   275  2.7400000000000D+00  0.0000000000000D+00  0.0000000000000D+00
   276  2.7500000000000D+00  0.0000000000000D+00  0.0000000000000D+00
   277  2.7600000000000D+00  0.0000000000000D+00  0.0000000000000D+00
   278  2.7700000000000D+00  0.0000000000000D+00  0.0000000000000D+00
   279  2.7800000000000D+00  0.0000000000000D+00  0.0000000000000D+00
   280  2.7900000000000D+00  0.0000000000000D+00  0.0000000000000D+00
   281  2.8000000000000D+00  0.0000000000000D+00  0.0000000000000D+00
   282  2.8100000000000D+00  0.0000000000000D+00  0.0000000000000D+00
   283  2.8200000000000D+00  0.0000000000000D+00  0.0000000000000D+00
   284  2.8300000000000D+00  0.0000000000000D+00  0.0000000000000D+00
   285  2.8400000000000D+00  0.0000000000000D+00  0.0000000000000D+00
   286  2.8500000000000D+00  0.0000000000000D+00  0.0000000000000D+00
   287  2.8600000000000D+00  0.0000000000000D+00  0.0000000000000D+00
   288  2.8700000000000D+00  0.0000000000000D+00  0.0000000000000D+00
   289  2.8800000000000D+00  0.0000000000000D+00  0.0000000000000D+00
   290  2.8900000000000D+00  0.0000000000000D+00  0.0000000000000D+00
   291  2.9000000000000D+00  0.0000000000000D+00  0.0000000000000D+00
   292  2.9100000000000D+00  0.0000000000000D+00  0.0000000000000D+00
   293  2.9200000000000D+00  0.0000000000000D+00  0.0000000000000D+00
   294  2.9300000000000D+00  0.0000000000000D+00  0.0000000000000D+00
   295  2.9400000000000D+00  0.0000000000000D+00  0.0000000000000D+00
   296  2.9500000000000D+00  0.0000000000000D+00  0.0000000000000D+00
   297  2.9600000000000D+00  0.0000000000000D+00  0.0000000000000D+00
   298  2.9700000000000D+00  0.0000000000000D+00  0.0000000000000D+00
   299  2.9800000000000D+00  0.0000000000000D+00  0.0000000000000D+00
   300  2.9900000000000D+00  0.0000000000000D+00  0.0000000000000D+00
   301  3.0000000000000D+00  0.0000000000000D+00  0.0000000000000D+00
   302  3.0100000000000D+00  0.0000000000000D+00  0.0000000000000D+00
   303  3.0200000000000D+00  0.0000000000000D+00  0.0000000000000D+00
   304  3.0300000000000D+00  0.0000000000000D+00  0.0000000000000D+00
   305  3.0400000000000D+00  0.0000000000000D+00  0.0000000000000D+00
   306  3.0500000000000D+00  0.0000000000000D+00  0.0000000000000D+00
   307  3.0600000000000D+00  0.0000000000000D+00  0.0000000000000D+00
   308  3.0700000000000D+00  0.0000000000000D+00  0.0000000000000D+00
   309  3.0800000000000D+00  0.0000000000000D+00  0.0000000000000D+00
   310  3.0900000000000D+00  0.0000000000000D+00  0.0000000000000D+00
   311  3.1000000000000D+00  0.0000000000000D+00  0.0000000000000D+00
   312  3.1100000000000D+00  0.0000000000000D+00  0.0000000000000D+00
   313  3.1200000000000D+00  0.0000000000000D+00  0.0000000000000D+00
   314  3.1300000000000D+00  0.0000000000000D+00  0.0000000000000D+00
   315  3.1400000000000D+00  0.0000000000000D+00  0.0000000000000D+00
   316  3.1500000000000D+00  0.0000000000000D+00  0.0000000000000D+00
   317  3.1600000000000D+00  0.0000000000000D+00  0.0000000000000D+00
   318  3.1700000000000D+00  0.0000000000000D+00  0.0000000000000D+00
   319  3.1800000000000D+00  0.0000000000000D+00  0.0000000000000D+00
   320  3.1900000000000D+00  0.0000000000000D+00  0.0000000000000D+00
   321  3.2000000000000D+00  0.0000000000000D+00  0.0000000000000D+00
   322  3.2100000000000D+00  0.0000000000000D+00  0.0000000000000D+00
   323  3.2200000000000D+00  0.0000000000000D+00  0.0000000000000D+00
   324  3.2300000000000D+00  0.0000000000000D+00  0.0000000000000D+00
   325  3.2400000000000D+00  0.0000000000000D+00  0.0000000000000D+00
   326  3.2500000000000D+00  0.0000000000000D+00  0.0000000000000D+00
   327  3.2600000000000D+00  0.0000000000000D+00  0.0000000000000D+00
   328  3.2700000000000D+00  0.0000000000000D+00  0.0000000000000D+00
   329  3.2800000000000D+00  0.0000000000000D+00  0.0000000000000D+00
   330  3.2900000000000D+00  0.0000000000000D+00  0.0000000000000D+00
   331  3.3000000000000D+00  0.0000000000000D+00  0.0000000000000D+00
   332  3.3100000000000D+00  0.0000000000000D+00  0.0000000000000D+00
   333  3.3200000000000D+00  0.0000000000000D+00  0.0000000000000D+00
   334  3.3300000000000D+00  0.0000000000000D+00  0.0000000000000D+00
   335  3.3400000000000D+00  0.0000000000000D+00  0.0000000000000D+00
   336  3.3500000000000D+00  0.0000000000000D+00  0.0000000000000D+00
   337  3.3600000000000D+00  0.0000000000000D+00  0.0000000000000D+00
   338  3.3700000000000D+00  0.0000000000000D+00  0.0000000000000D+00
   339  3.3800000000000D+00  0.0000000000000D+00  0.0000000000000D+00
   340  3.3900000000000D+00  0.0000000000000D+00  0.0000000000000D+00
   341  3.4000000000000D+00  0.0000000000000D+00  0.0000000000000D+00
   342  3.4100000000000D+00  0.0000000000000D+00  0.0000000000000D+00
   343  3.4200000000000D+00  0.0000000000000D+00  0.0000000000000D+00
   344  3.4300000000000D+00  0.0000000000000D+00  0.0000000000000D+00
   345  3.4400000000000D+00  0.0000000000000D+00  0.0000000000000D+00
   346  3.4500000000000D+00  0.0000000000000D+00  0.0000000000000D+00
   347  3.4600000000000D+00  0.0000000000000D+00  0.0000000000000D+00
   348  3.4700000000000D+00  0.0000000000000D+00  0.0000000000000D+00
   349  3.4800000000000D+00  0.0000000000000D+00  0.0000000000000D+00
   350  3.4900000000000D+00  0.0000000000000D+00  0.0000000000000D+00
   351  3.5000000000000D+00  0.0000000000000D+00  0.0000000000000D+00
   352  3.5100000000000D+00  0.0000000000000D+00  0.0000000000000D+00
   353  3.5200000000000D+00  0.0000000000000D+00  0.0000000000000D+00
   354  3.5300000000000D+00  0.0000000000000D+00  0.0000000000000D+00
   355  3.5400000000000D+00  0.0000000000000D+00  0.0000000000000D+00
   356  3.5500000000000D+00  0.0000000000000D+00  0.0000000000000D+00
   357  3.5600000000000D+00  0.0000000000000D+00  0.0000000000000D+00
   358  3.5700000000000D+00  0.0000000000000D+00  0.0000000000000D+00
   359  3.5800000000000D+00  0.0000000000000D+00  0.0000000000000D+00
   360  3.5900000000000D+00  0.0000000000000D+00  0.0000000000000D+00
   361  3.6000000000000D+00  0.0000000000000D+00  0.0000000000000D+00
   362  3.6100000000000D+00  0.0000000000000D+00  0.0000000000000D+00
   363  3.6200000000000D+00  0.0000000000000D+00  0.0000000000000D+00
   364  3.6300000000000D+00  0.0000000000000D+00  0.0000000000000D+00
   365  3.6400000000000D+00  0.0000000000000D+00  0.0000000000000D+00
   366  3.6500000000000D+00  0.0000000000000D+00  0.0000000000000D+00
   367  3.6600000000000D+00  0.0000000000000D+00  0.0000000000000D+00
   368  3.6700000000000D+00  0.0000000000000D+00  0.0000000000000D+00
   369  3.6800000000000D+00  0.0000000000000D+00  0.0000000000000D+00
   370  3.6900000000000D+00  0.0000000000000D+00  0.0000000000000D+00
   371  3.7000000000000D+00  0.0000000000000D+00  0.0000000000000D+00
   372  3.7100000000000D+00  0.0000000000000D+00  0.0000000000000D+00
   373  3.7200000000000D+00  0.0000000000000D+00  0.0000000000000D+00
   374  3.7300000000000D+00  0.0000000000000D+00  0.0000000000000D+00
   375  3.7400000000000D+00  0.0000000000000D+00  0.0000000000000D+00
   376  3.7500000000000D+00  0.0000000000000D+00  0.0000000000000D+00
   377  3.7600000000000D+00  0.0000000000000D+00  0.0000000000000D+00
   378  3.7700000000000D+00  0.0000000000000D+00  0.0000000000000D+00
   379  3.7800000000000D+00  0.0000000000000D+00  0.0000000000000D+00
   380  3.7900000000000D+00  0.0000000000000D+00  0.0000000000000D+00
   381  3.8000000000000D+00  0.0000000000000D+00  0.0000000000000D+00
   382  3.8100000000000D+00  0.0000000000000D+00  0.0000000000000D+00
   383  3.8200000000000D+00  0.0000000000000D+00  0.0000000000000D+00
   384  3.8300000000000D+00  0.0000000000000D+00  0.0000000000000D+00
   385  3.8400000000000D+00  0.0000000000000D+00  0.0000000000000D+00
   386  3.8500000000000D+00  0.0000000000000D+00  0.0000000000000D+00
   387  3.8600000000000D+00  0.0000000000000D+00  0.0000000000000D+00
   388  3.8700000000000D+00  0.0000000000000D+00  0.0000000000000D+00
   389  3.8800000000000D+00  0.0000000000000D+00  0.0000000000000D+00
   390  3.8900000000000D+00  0.0000000000000D+00  0.0000000000000D+00
   391  3.9000000000000D+00  0.0000000000000D+00  0.0000000000000D+00
   392  3.9100000000000D+00  0.0000000000000D+00  0.0000000000000D+00
   393  3.9200000000000D+00  0.0000000000000D+00  0.0000000000000D+00
   394  3.9300000000000D+00  0.0000000000000D+00  0.0000000000000D+00
   395  3.9400000000000D+00  0.0000000000000D+00  0.0000000000000D+00
   396  3.9500000000000D+00  0.0000000000000D+00  0.0000000000000D+00
   397  3.9600000000000D+00  0.0000000000000D+00  0.0000000000000D+00
   398  3.9700000000000D+00  0.0000000000000D+00  0.0000000000000D+00
   399  3.9800000000000D+00  0.0000000000000D+00  0.0000000000000D+00
   400  3.9900000000000D+00  0.0000000000000D+00  0.0000000000000D+00
   1                        -6.4935405723314D+00 -1.9827471803647D+00
     1  0.0000000000000D+00 -2.0874174611052D-10  8.8335284226249D-10
     2  1.0000000000000D-02  1.8741191145086D-03 -5.1364143906424D-04
     3  2.0000000000000D-02  7.4890174359573D-03 -2.0519546503004D-03
     4  3.0000000000000D-02  1.6822335139632D-02 -4.6070895704495D-03
     5  4.0000000000000D-02  2.9836863450620D-02 -8.1659074420372D-03
     6  5.0000000000000D-02  4.6480631487735D-02 -1.2709899575186D-02
     7  6.0000000000000D-02  6.6687028723380D-02 -1.8215077067870D-02
     8  7.0000000000000D-02  9.0374963912616D-02 -2.4651834876857D-02
     9  8.0000000000000D-02  1.1744906155343D-01 -3.1984794514921D-02
    10  9.0000000000000D-02  1.4779989712273D-01 -4.0172630468799D-02
    11  1.0000000000000D-01  1.8130427248456D-01 -4.9167886176398D-02
    12  1.1000000000000D-01  2.1782553298368D-01 -5.8916786057459D-02
    13  1.2000000000000D-01  2.5721392781415D-01 -6.9359050650154D-02
    14  1.3000000000000D-01  2.9930701528685D-01 -8.0427722356860D-02
    15  1.4000000000000D-01  3.4393011460727D-01 -9.2049009637904D-02
    16  1.5000000000000D-01  3.9089680571430D-01 -1.0414215770570D-01
    17  1.6000000000000D-01  4.4000947861982D-01 -1.1661935385872D-01
    18  1.7000000000000D-01  4.9105993352717D-01 -1.2938567555104D-01
    19  1.8000000000000D-01  5.4383003279333D-01 -1.4233908911771D-01
    20  1.9000000000000D-01  5.9809240553567D-01 -1.5537050676814D-01
    21  2.0000000000000D-01  6.5361120537096D-01 -1.6836390902110D-01
    22  2.1000000000000D-01  7.1014292141351D-01 -1.8119653918841D-01