<UPF version="2.0.1">
  <PP_INFO>

 This pseudopotential file has been produced using the code
 ONCVPSP  (Optimized Norm-Conservinng Vanderbilt PSeudopotential)
 scalar-relativistic version 3.3.0 08/16/2017 by D. R. Hamann
 The code is available through a link at URL www.mat-simresearch.com.
 Documentation with the package provides a full discription of the
 input data below.


 While it is not required under the terms of the GNU GPL, it is
 suggested that you cite D. R. Hamann, Phys. Rev. B 88, 085117 (2013)
 in any publication using these pseudopotentials.

    <PP_INPUTFILE>
# ATOM AND REFERENCE CONFIGURATION
# atsym  z   nc   nv     iexc    psfile
  Ne 10.00    1    2       3      both
#
#   n    l    f        energy (Ha)
    1    0    2.00
    2    0    2.00
    2    1    6.00
#
# PSEUDOPOTENTIAL AND OPTIMIZATION
# lmax
    1
#
#   l,   rc,      ep,       ncon, nbas, qcut
    0   1.30000  -1.32709    4    7   9.00000
    1   1.50000  -0.49729    4    7   8.80000
#
# LOCAL POTENTIAL
# lloc, lpopt,  rc(5),   dvloc0
    4    5   1.30000      0.00000
#
# VANDERBILT-KLEINMAN-BYLANDER PROJECTORs
# l, nproj, debl
    0    2   1.50000
    1    2   1.50000
#
# MODEL CORE CHARGE
# icmod, fcfact, rcfact
    0   0.00000   0.00000
#
# LOG DERIVATIVE ANALYSIS
# epsh1, epsh2, depsh
  -12.00   12.00    0.02
#
# OUTPUT GRID
# rlmax, drl
    4.00    0.01
#
# TEST CONFIGURATIONS
# ncnf
    0
# nvcnf
#   n    l    f
    </PP_INPUTFILE>
  </PP_INFO>
  <!--                               -->
  <!-- END OF HUMAN READABLE SECTION -->
  <!--                               -->
    <PP_HEADER
       generated="Generated using ONCVPSP code by D. R. Hamann"
       author="anonymous"
       date="220408"
       comment=""
       element="Ne"
       pseudo_type="NC"
       relativistic="scalar"
       is_ultrasoft="F"
       is_paw="F"
       is_coulomb="F"
       has_so="F"
       has_wfc="F"
       has_gipaw="F"
       core_correction="F"
       functional="PZ"
       z_valence="    8.00"
       total_psenergy="  -6.76658346138E+01"
       rho_cutoff="   7.49000000000E+00"
       l_max="1"
       l_local="-1"
       mesh_size="   750"
       number_of_wfc="2"
       number_of_proj="4"/>
 <PP_MESH>
   <PP_R type="real"  size=" 750" columns="8">
    0.0000    0.0100    0.0200    0.0300    0.0400    0.0500    0.0600    0.0700
    0.0800    0.0900    0.1000    0.1100    0.1200    0.1300    0.1400    0.1500
    0.1600    0.1700    0.1800    0.1900    0.2000    0.2100    0.2200    0.2300
    0.2400    0.2500    0.2600    0.2700    0.2800    0.2900    0.3000    0.3100
    0.3200    0.3300    0.3400    0.3500    0.3600    0.3700    0.3800    0.3900
    0.4000    0.4100    0.4200    0.4300    0.4400    0.4500    0.4600    0.4700
    0.4800    0.4900    0.5000    0.5100    0.5200    0.5300    0.5400    0.5500
    0.5600    0.5700    0.5800    0.5900    0.6000    0.6100    0.6200    0.6300
    0.6400    0.6500    0.6600    0.6700    0.6800    0.6900    0.7000    0.7100
    0.7200    0.7300    0.7400    0.7500    0.7600    0.7700    0.7800    0.7900
    0.8000    0.8100    0.8200    0.8300    0.8400    0.8500    0.8600    0.8700
    0.8800    0.8900    0.9000    0.9100    0.9200    0.9300    0.9400    0.9500
    0.9600    0.9700    0.9800    0.9900    1.0000    1.0100    1.0200    1.0300
    1.0400    1.0500    1.0600    1.0700    1.0800    1.0900    1.1000    1.1100
    1.1200    1.1300    1.1400    1.1500    1.1600    1.1700    1.1800    1.1900
    1.2000    1.2100    1.2200    1.2300    1.2400    1.2500    1.2600    1.2700
    1.2800    1.2900    1.3000    1.3100    1.3200    1.3300    1.3400    1.3500
    1.3600    1.3700    1.3800    1.3900    1.4000    1.4100    1.4200    1.4300
    1.4400    1.4500    1.4600    1.4700    1.4800    1.4900    1.5000    1.5100
    1.5200    1.5300    1.5400    1.5500    1.5600    1.5700    1.5800    1.5900
    1.6000    1.6100    1.6200    1.6300    1.6400    1.6500    1.6600    1.6700
    1.6800    1.6900    1.7000    1.7100    1.7200    1.7300    1.7400    1.7500
    1.7600    1.7700    1.7800    1.7900    1.8000    1.8100    1.8200    1.8300
    1.8400    1.8500    1.8600    1.8700    1.8800    1.8900    1.9000    1.9100
    1.9200    1.9300    1.9400    1.9500    1.9600    1.9700    1.9800    1.9900
    2.0000    2.0100    2.0200    2.0300    2.0400    2.0500    2.0600    2.0700
    2.0800    2.0900    2.1000    2.1100    2.1200    2.1300    2.1400    2.1500
    2.1600    2.1700    2.1800    2.1900    2.2000    2.2100    2.2200    2.2300
    2.2400    2.2500    2.2600    2.2700    2.2800    2.2900    2.3000    2.3100
    2.3200    2.3300    2.3400    2.3500    2.3600    2.3700    2.3800    2.3900
    2.4000    2.4100    2.4200    2.4300    2.4400    2.4500    2.4600    2.4700
    2.4800    2.4900    2.5000    2.5100    2.5200    2.5300    2.5400    2.5500
    2.5600    2.5700    2.5800    2.5900    2.6000    2.6100    2.6200    2.6300
    2.6400    2.6500    2.6600    2.6700    2.6800    2.6900    2.7000    2.7100
    2.7200    2.7300    2.7400    2.7500    2.7600    2.7700    2.7800    2.7900
    2.8000    2.8100    2.8200    2.8300    2.8400    2.8500    2.8600    2.8700
    2.8800    2.8900    2.9000    2.9100    2.9200    2.9300    2.9400    2.9500
    2.9600    2.9700    2.9800    2.9900    3.0000    3.0100    3.0200    3.0300
    3.0400    3.0500    3.0600    3.0700    3.0800    3.0900    3.1000    3.1100
    3.1200    3.1300    3.1400    3.1500    3.1600    3.1700    3.1800    3.1900
    3.2000    3.2100    3.2200    3.2300    3.2400    3.2500    3.2600    3.2700
    3.2800    3.2900    3.3000    3.3100    3.3200    3.3300    3.3400    3.3500
    3.3600    3.3700    3.3800    3.3900    3.4000    3.4100    3.4200    3.4300
    3.4400    3.4500    3.4600    3.4700    3.4800    3.4900    3.5000    3.5100
    3.5200    3.5300    3.5400    3.5500    3.5600    3.5700    3.5800    3.5900
    3.6000    3.6100    3.6200    3.6300    3.6400    3.6500    3.6600    3.6700
    3.6800    3.6900    3.7000    3.7100    3.7200    3.7300    3.7400    3.7500
    3.7600    3.7700    3.7800    3.7900    3.8000    3.8100    3.8200    3.8300
    3.8400    3.8500    3.8600    3.8700    3.8800    3.8900    3.9000    3.9100
    3.9200    3.9300    3.9400    3.9500    3.9600    3.9700    3.9800    3.9900
    4.0000    4.0100    4.0200    4.0300    4.0400    4.0500    4.0600    4.0700
    4.0800    4.0900    4.1000    4.1100    4.1200    4.1300    4.1400    4.1500
    4.1600    4.1700    4.1800    4.1900    4.2000    4.2100    4.2200    4.2300
    4.2400    4.2500    4.2600    4.2700    4.2800    4.2900    4.3000    4.3100
    4.3200    4.3300    4.3400    4.3500    4.3600    4.3700    4.3800    4.3900
    4.4000    4.4100    4.4200    4.4300    4.4400    4.4500    4.4600    4.4700
    4.4800    4.4900    4.5000    4.5100    4.5200    4.5300    4.5400    4.5500
    4.5600    4.5700    4.5800    4.5900    4.6000    4.6100    4.6200    4.6300
    4.6400    4.6500    4.6600    4.6700    4.6800    4.6900    4.7000    4.7100
    4.7200    4.7300    4.7400    4.7500    4.7600    4.7700    4.7800    4.7900
    4.8000    4.8100    4.8200    4.8300    4.8400    4.8500    4.8600    4.8700
    4.8800    4.8900    4.9000    4.9100    4.9200    4.9300    4.9400    4.9500
    4.9600    4.9700    4.9800    4.9900    5.0000    5.0100    5.0200    5.0300
    5.0400    5.0500    5.0600    5.0700    5.0800    5.0900    5.1000    5.1100
    5.1200    5.1300    5.1400    5.1500    5.1600    5.1700    5.1800    5.1900
    5.2000    5.2100    5.2200    5.2300    5.2400    5.2500    5.2600    5.2700
    5.2800    5.2900    5.3000    5.3100    5.3200    5.3300    5.3400    5.3500
    5.3600    5.3700    5.3800    5.3900    5.4000    5.4100    5.4200    5.4300
    5.4400    5.4500    5.4600    5.4700    5.4800    5.4900    5.5000    5.5100
    5.5200    5.5300    5.5400    5.5500    5.5600    5.5700    5.5800    5.5900
    5.6000    5.6100    5.6200    5.6300    5.6400    5.6500    5.6600    5.6700
    5.6800    5.6900    5.7000    5.7100    5.7200    5.7300    5.7400    5.7500
    5.7600    5.7700    5.7800    5.7900    5.8000    5.8100    5.8200    5.8300
    5.8400    5.8500    5.8600    5.8700    5.8800    5.8900    5.9000    5.9100
    5.9200    5.9300    5.9400    5.9500    5.9600    5.9700    5.9800    5.9900
    6.0000    6.0100    6.0200    6.0300    6.0400    6.0500    6.0600    6.0700
    6.0800    6.0900    6.1000    6.1100    6.1200    6.1300    6.1400    6.1500
    6.1600    6.1700    6.1800    6.1900    6.2000    6.2100    6.2200    6.2300
    6.2400    6.2500    6.2600    6.2700    6.2800    6.2900    6.3000    6.3100
    6.3200    6.3300    6.3400    6.3500    6.3600    6.3700    6.3800    6.3900
    6.4000    6.4100    6.4200    6.4300    6.4400    6.4500    6.4600    6.4700
    6.4800    6.4900    6.5000    6.5100    6.5200    6.5300    6.5400    6.5500
    6.5600    6.5700    6.5800    6.5900    6.6000    6.6100    6.6200    6.6300
    6.6400    6.6500    6.6600    6.6700    6.6800    6.6900    6.7000    6.7100
    6.7200    6.7300    6.7400    6.7500    6.7600    6.7700    6.7800    6.7900
    6.8000    6.8100    6.8200    6.8300    6.8400    6.8500    6.8600    6.8700
    6.8800    6.8900    6.9000    6.9100    6.9200    6.9300    6.9400    6.9500
    6.9600    6.9700    6.9800    6.9900    7.0000    7.0100    7.0200    7.0300
    7.0400    7.0500    7.0600    7.0700    7.0800    7.0900    7.1000    7.1100
    7.1200    7.1300    7.1400    7.1500    7.1600    7.1700    7.1800    7.1900
    7.2000    7.2100    7.2200    7.2300    7.2400    7.2500    7.2600    7.2700
    7.2800    7.2900    7.3000    7.3100    7.3200    7.3300    7.3400    7.3500
    7.3600    7.3700    7.3800    7.3900    7.4000    7.4100    7.4200    7.4300
    7.4400    7.4500    7.4600    7.4700    7.4800    7.4900
   </PP_R>
   <PP_RAB type="real"  size=" 750" columns="8">
    0.0100    0.0100    0.0100    0.0100    0.0100    0.0100    0.0100    0.0100
    0.0100    0.0100    0.0100    0.0100    0.0100    0.0100    0.0100    0.0100
    0.0100    0.0100    0.0100    0.0100    0.0100    0.0100    0.0100    0.0100
    0.0100    0.0100    0.0100    0.0100    0.0100    0.0100    0.0100    0.0100
    0.0100    0.0100    0.0100    0.0100    0.0100    0.0100    0.0100    0.0100
    0.0100    0.0100    0.0100    0.0100    0.0100    0.0100    0.0100    0.0100
    0.0100    0.0100    0.0100    0.0100    0.0100    0.0100    0.0100    0.0100
    0.0100    0.0100    0.0100    0.0100    0.0100    0.0100    0.0100    0.0100
    0.0100    0.0100    0.0100    0.0100    0.0100    0.0100    0.0100    0.0100
    0.0100    0.0100    0.0100    0.0100    0.0100    0.0100    0.0100    0.0100
    0.0100    0.0100    0.0100    0.0100    0.0100    0.0100    0.0100    0.0100
    0.0100    0.0100    0.0100    0.0100    0.0100    0.0100    0.0100    0.0100
    0.0100    0.0100    0.0100    0.0100    0.0100    0.0100    0.0100    0.0100
    0.0100    0.0100    0.0100    0.0100    0.0100    0.0100    0.0100    0.0100
    0.0100    0.0100    0.0100    0.0100    0.0100    0.0100    0.0100    0.0100
    0.0100    0.0100    0.0100    0.0100    0.0100    0.0100    0.0100    0.0100
    0.0100    0.0100    0.0100    0.0100    0.0100    0.0100    0.0100    0.0100
    0.0100    0.0100    0.0100    0.0100    0.0100    0.0100    0.0100    0.0100
    0.0100    0.0100    0.0100    0.0100    0.0100    0.0100    0.0100    0.0100
    0.0100    0.0100    0.0100    0.0100    0.0100    0.0100    0.0100    0.0100
    0.0100    0.0100    0.0100    0.0100    0.0100    0.0100    0.0100    0.0100
    0.0100    0.0100    0.0100    0.0100    0.0100    0.0100    0.0100    0.0100
    0.0100    0.0100    0.0100    0.0100    0.0100    0.0100    0.0100    0.0100
    0.0100    0.0100    0.0100    0.0100    0.0100    0.0100    0.0100    0.0100
    0.0100    0.0100    0.0100    0.0100    0.0100    0.0100    0.0100    0.0100
    0.0100    0.0100    0.0100    0.0100    0.0100    0.0100    0.0100    0.0100
    0.0100    0.0100    0.0100    0.0100    0.0100    0.0100    0.0100    0.0100
    0.0100    0.0100    0.0100    0.0100    0.0100    0.0100    0.0100    0.0100
    0.0100    0.0100    0.0100    0.0100    0.0100    0.0100    0.0100    0.0100
    0.0100    0.0100    0.0100    0.0100    0.0100    0.0100    0.0100    0.0100
    0.0100    0.0100    0.0100    0.0100    0.0100    0.0100    0.0100    0.0100
    0.0100    0.0100    0.0100    0.0100    0.0100    0.0100    0.0100    0.0100
    0.0100    0.0100    0.0100    0.0100    0.0100    0.0100    0.0100    0.0100
    0.0100    0.0100    0.0100    0.0100    0.0100    0.0100    0.0100    0.0100
    0.0100    0.0100    0.0100    0.0100    0.0100    0.0100    0.0100    0.0100
    0.0100    0.0100    0.0100    0.0100    0.0100    0.0100    0.0100    0.0100
    0.0100    0.0100    0.0100    0.0100    0.0100    0.0100    0.0100    0.0100
    0.0100    0.0100    0.0100    0.0100    0.0100    0.0100    0.0100    0.0100
    0.0100    0.0100    0.0100    0.0100    0.0100    0.0100    0.0100    0.0100
    0.0100    0.0100    0.0100    0.0100    0.0100    0.0100    0.0100    0.0100
    0.0100    0.0100    0.0100    0.0100    0.0100    0.0100    0.0100    0.0100
    0.0100    0.0100    0.0100    0.0100    0.0100    0.0100    0.0100    0.0100
    0.0100    0.0100    0.0100    0.0100    0.0100    0.0100    0.0100    0.0100
    0.0100    0.0100    0.0100    0.0100    0.0100    0.0100    0.0100    0.0100
    0.0100    0.0100    0.0100    0.0100    0.0100    0.0100    0.0100    0.0100
    0.0100    0.0100    0.0100    0.0100    0.0100    0.0100    0.0100    0.0100
    0.0100    0.0100    0.0100    0.0100    0.0100    0.0100    0.0100    0.0100
    0.0100    0.0100    0.0100    0.0100    0.0100    0.0100    0.0100    0.0100
    0.0100    0.0100    0.0100    0.0100    0.0100    0.0100    0.0100    0.0100
    0.0100    0.0100    0.0100    0.0100    0.0100    0.0100    0.0100    0.0100
    0.0100    0.0100    0.0100    0.0100    0.0100    0.0100    0.0100    0.0100
    0.0100    0.0100    0.0100    0.0100    0.0100    0.0100    0.0100    0.0100
    0.0100    0.0100    0.0100    0.0100    0.0100    0.0100    0.0100    0.0100
    0.0100    0.0100    0.0100    0.0100    0.0100    0.0100    0.0100    0.0100
    0.0100    0.0100    0.0100    0.0100    0.0100    0.0100    0.0100    0.0100
    0.0100    0.0100    0.0100    0.0100    0.0100    0.0100    0.0100    0.0100
    0.0100    0.0100    0.0100    0.0100    0.0100    0.0100    0.0100    0.0100
    0.0100    0.0100    0.0100    0.0100    0.0100    0.0100    0.0100    0.0100
    0.0100    0.0100    0.0100    0.0100    0.0100    0.0100    0.0100    0.0100
    0.0100    0.0100    0.0100    0.0100    0.0100    0.0100    0.0100    0.0100
    0.0100    0.0100    0.0100    0.0100    0.0100    0.0100    0.0100    0.0100
    0.0100    0.0100    0.0100    0.0100    0.0100    0.0100    0.0100    0.0100
    0.0100    0.0100    0.0100    0.0100    0.0100    0.0100    0.0100    0.0100
    0.0100    0.0100    0.0100    0.0100    0.0100    0.0100    0.0100    0.0100
    0.0100    0.0100    0.0100    0.0100    0.0100    0.0100    0.0100    0.0100
    0.0100    0.0100    0.0100    0.0100    0.0100    0.0100    0.0100    0.0100
    0.0100    0.0100    0.0100    0.0100    0.0100    0.0100    0.0100    0.0100
    0.0100    0.0100    0.0100    0.0100    0.0100    0.0100    0.0100    0.0100
    0.0100    0.0100    0.0100    0.0100    0.0100    0.0100    0.0100    0.0100
    0.0100    0.0100    0.0100    0.0100    0.0100    0.0100    0.0100    0.0100
    0.0100    0.0100    0.0100    0.0100    0.0100    0.0100    0.0100    0.0100
    0.0100    0.0100    0.0100    0.0100    0.0100    0.0100    0.0100    0.0100
    0.0100    0.0100    0.0100    0.0100    0.0100    0.0100    0.0100    0.0100
    0.0100    0.0100    0.0100    0.0100    0.0100    0.0100    0.0100    0.0100
    0.0100    0.0100    0.0100    0.0100    0.0100    0.0100    0.0100    0.0100
    0.0100    0.0100    0.0100    0.0100    0.0100    0.0100    0.0100    0.0100
    0.0100    0.0100    0.0100    0.0100    0.0100    0.0100    0.0100    0.0100
    0.0100    0.0100    0.0100    0.0100    0.0100    0.0100    0.0100    0.0100
    0.0100    0.0100    0.0100    0.0100    0.0100    0.0100    0.0100    0.0100
    0.0100    0.0100    0.0100    0.0100    0.0100    0.0100    0.0100    0.0100
    0.0100    0.0100    0.0100    0.0100    0.0100    0.0100    0.0100    0.0100
    0.0100    0.0100    0.0100    0.0100    0.0100    0.0100    0.0100    0.0100
    0.0100    0.0100    0.0100    0.0100    0.0100    0.0100    0.0100    0.0100
    0.0100    0.0100    0.0100    0.0100    0.0100    0.0100    0.0100    0.0100
    0.0100    0.0100    0.0100    0.0100    0.0100    0.0100    0.0100    0.0100
    0.0100    0.0100    0.0100    0.0100    0.0100    0.0100    0.0100    0.0100
    0.0100    0.0100    0.0100    0.0100    0.0100    0.0100    0.0100    0.0100
    0.0100    0.0100    0.0100    0.0100    0.0100    0.0100    0.0100    0.0100
    0.0100    0.0100    0.0100    0.0100    0.0100    0.0100    0.0100    0.0100
    0.0100    0.0100    0.0100    0.0100    0.0100    0.0100    0.0100    0.0100
    0.0100    0.0100    0.0100    0.0100    0.0100    0.0100    0.0100    0.0100
    0.0100    0.0100    0.0100    0.0100    0.0100    0.0100    0.0100    0.0100
    0.0100    0.0100    0.0100    0.0100    0.0100    0.0100    0.0100    0.0100
    0.0100    0.0100    0.0100    0.0100    0.0100    0.0100
   </PP_RAB>
 </PP_MESH>
  <PP_LOCAL type="real"  size=" 750" columns="4">
   -2.7448304069E+01   -2.7445986633E+01   -2.7439046969E+01   -2.7427522640E+01
   -2.7411474617E+01   -2.7390985009E+01   -2.7366154106E+01   -2.7337096987E+01
   -2.7303939880E+01   -2.7266816518E+01   -2.7225864656E+01   -2.7181222892E+01
   -2.7133027902E+01   -2.7081412133E+01   -2.7026501975E+01   -2.6968416398E+01
   -2.6907266024E+01   -2.6843152575E+01   -2.6776168655E+01   -2.6706397800E+01
   -2.6633914748E+01   -2.6558785877E+01   -2.6481069760E+01   -2.6400817821E+01
   -2.6318075030E+01   -2.6232880642E+01   -2.6145268939E+01   -2.6055269966E+01
   -2.5962910252E+01   -2.5868213503E+01   -2.5771201257E+01   -2.5671893510E+01
   -2.5570309289E+01   -2.5466467192E+01   -2.5360385876E+01   -2.5252084503E+01
   -2.5141583144E+01   -2.5028903136E+01   -2.4914067396E+01   -2.4797100697E+01
   -2.4678029901E+01   -2.4556884155E+01   -2.4433695048E+01   -2.4308496739E+01
   -2.4181326042E+01   -2.4052222489E+01   -2.3921228358E+01   -2.3788388677E+01
   -2.3653751200E+01   -2.3517366359E+01   -2.3379287198E+01   -2.3239569287E+01
   -2.3098270609E+01   -2.2955451450E+01   -2.2811174253E+01   -2.2665503482E+01
   -2.2518505456E+01   -2.2370248191E+01   -2.2220801223E+01   -2.2070235436E+01
   -2.1918622879E+01   -2.1766036586E+01   -2.1612550393E+01   -2.1458238756E+01
   -2.1303176572E+01   -2.1147439005E+01   -2.0991101311E+01   -2.0834238673E+01
   -2.0676926038E+01   -2.0519237968E+01   -2.0361248487E+01   -2.0203030946E+01
   -2.0044657893E+01   -1.9886200947E+01   -1.9727730689E+01   -1.9569316555E+01
   -1.9411026743E+01   -1.9252928125E+01   -1.9095086172E+01   -1.8937564883E+01
   -1.8780426727E+01   -1.8623732592E+01   -1.8467541740E+01   -1.8311911772E+01
   -1.8156898597E+01   -1.8002556415E+01   -1.7848937696E+01   -1.7696093171E+01
   -1.7544071830E+01   -1.7392920918E+01   -1.7242685942E+01   -1.7093410675E+01
   -1.6945137170E+01   -1.6797905773E+01   -1.6651755135E+01   -1.6506722234E+01
   -1.6362842385E+01   -1.6220149269E+01   -1.6078674943E+01   -1.5938449862E+01
   -1.5799502896E+01   -1.5661861350E+01   -1.5525550974E+01   -1.5390595983E+01
   -1.5257019065E+01   -1.5124841395E+01   -1.4994082638E+01   -1.4864760960E+01
   -1.4736893027E+01   -1.4610494008E+01   -1.4485577569E+01   -1.4362155872E+01
   -1.4240239563E+01   -1.4119837761E+01   -1.4000958134E+01   -1.3883606467E+01
   -1.3767786242E+01   -1.3653508241E+01   -1.3540752042E+01   -1.3429490895E+01
   -1.3319754737E+01   -1.3211552904E+01   -1.3104877580E+01   -1.2999721662E+01
   -1.2896075762E+01   -1.2793928833E+01   -1.2693267734E+01   -1.2594077378E+01
   -1.2496340656E+01   -1.2400038363E+01   -1.2305149237E+01   -1.2211649666E+01
   -1.2119513933E+01   -1.2028715419E+01   -1.1939227669E+01   -1.1851025245E+01
   -1.1764083410E+01   -1.1678378088E+01   -1.1593885839E+01   -1.1510583810E+01
   -1.1428449693E+01   -1.1347461679E+01   -1.1267598421E+01   -1.1188838995E+01
   -1.1111162866E+01   -1.1034549850E+01   -1.0958980092E+01   -1.0884434027E+01
   -1.0810892365E+01   -1.0738336053E+01   -1.0666746269E+01   -1.0596104388E+01
   -1.0526392002E+01   -1.0457590962E+01   -1.0389683460E+01   -1.0322652189E+01
   -1.0256480322E+01   -1.0191151432E+01   -1.0126649512E+01   -1.0062958958E+01
   -1.0000064556E+01   -9.9379514712E+00   -9.8766052337E+00   -9.8160117293E+00
   -9.7561571881E+00   -9.6970281739E+00   -9.6386115744E+00   -9.5808945912E+00
   -9.5238647308E+00   -9.4675097953E+00   -9.4118178739E+00   -9.3567773345E+00
   -9.3023768152E+00   -9.2486052173E+00   -9.1954516968E+00   -9.1429056578E+00
   -9.0909567451E+00   -9.0395948379E+00   -8.9888100422E+00   -8.9385926857E+00
   -8.8889333107E+00   -8.8398226686E+00   -8.7912517142E+00   -8.7432115998E+00
   -8.6956936702E+00   -8.6486894573E+00   -8.6021906751E+00   -8.5561892149E+00
   -8.5106771404E+00   -8.4656466835E+00   -8.4210902395E+00   -8.3770003629E+00
   -8.3333697635E+00   -8.2901913020E+00   -8.2474579864E+00   -8.2051629682E+00
   -8.1632995385E+00   -8.1218611248E+00   -8.0808412873E+00   -8.0402337157E+00
   -8.0000322258E+00   -7.9602307566E+00   -7.9208233670E+00   -7.8818042330E+00
   -7.8431676449E+00   -7.8049080043E+00   -7.7670198217E+00   -7.7294977133E+00
   -7.6923363992E+00   -7.6555307004E+00   -7.6190755366E+00   -7.5829659238E+00
   -7.5471969720E+00   -7.5117638830E+00   -7.4766619485E+00   -7.4418865475E+00
   -7.4074331447E+00   -7.3732972886E+00   -7.3394746091E+00   -7.3059608161E+00
   -7.2727516973E+00   -7.2398431168E+00   -7.2072310133E+00   -7.1749113982E+00
   -7.1428803542E+00   -7.1111340336E+00   -7.0796686568E+00   -7.0484805108E+00
   -7.0175659478E+00   -6.9869213836E+00   -6.9565432966E+00   -6.9264282259E+00
   -6.8965727703E+00   -6.8669735872E+00   -6.8376273909E+00   -6.8085309518E+00
   -6.7796810949E+00   -6.7510746989E+00   -6.7227086949E+00   -6.6945800655E+00
   -6.6666858433E+00   -6.6390231104E+00   -6.6115889970E+00   -6.5843806807E+00
   -6.5573953852E+00   -6.5306303797E+00   -6.5040829775E+00   -6.4777505358E+00
   -6.4516304541E+00   -6.4257201739E+00   -6.4000171775E+00   -6.3745189874E+00
   -6.3492231654E+00   -6.3241273118E+00   -6.2992290648E+00   -6.2745260996E+00
   -6.2500161277E+00   -6.2256968961E+00   -6.2015661871E+00   -6.1776218168E+00
   -6.1538616353E+00   -6.1302835253E+00   -6.1068854020E+00   -6.0836652124E+00
   -6.0606209345E+00   -6.0377505767E+00   -6.0150521776E+00   -5.9925238050E+00
   -5.9701635556E+00   -5.9479695545E+00   -5.9259399543E+00   -5.9040729351E+00
   -5.8823667038E+00   -5.8608194935E+00   -5.8394295629E+00   -5.8181951963E+00
   -5.7971147028E+00   -5.7761864159E+00   -5.7554086930E+00   -5.7347799152E+00
   -5.7142984865E+00   -5.6939628340E+00   -5.6737714066E+00   -5.6537226756E+00
   -5.6338151335E+00   -5.6140472943E+00   -5.5944176923E+00   -5.5749248826E+00
   -5.5555674404E+00   -5.5363439603E+00   -5.5172530566E+00   -5.4982933624E+00
   -5.4794635298E+00   -5.4607622291E+00   -5.4421881486E+00   -5.4237399947E+00
   -5.4054164911E+00   -5.3872163786E+00   -5.3691384150E+00   -5.3511813748E+00
   -5.3333440487E+00   -5.3156252435E+00   -5.2980237820E+00   -5.2805385021E+00
   -5.2631682575E+00   -5.2459119166E+00   -5.2287683626E+00   -5.2117364935E+00
   -5.1948152214E+00   -5.1780034726E+00   -5.1613001870E+00   -5.1447043185E+00
   -5.1282148341E+00   -5.1118307143E+00   -5.0955509523E+00   -5.0793745542E+00
   -5.0633005388E+00   -5.0473279371E+00   -5.0314557924E+00   -5.0156831599E+00
   -5.0000091067E+00   -4.9844327115E+00   -4.9689530645E+00   -4.9535692669E+00
   -4.9382804314E+00   -4.9230856814E+00   -4.9079841510E+00   -4.8929749850E+00
   -4.8780573386E+00   -4.8632303773E+00   -4.8484932766E+00   -4.8338452222E+00
   -4.8192854093E+00   -4.8048130430E+00   -4.7904273379E+00   -4.7761275178E+00
   -4.7619128160E+00   -4.7477824747E+00   -4.7337357451E+00   -4.7197718873E+00
   -4.7058901701E+00   -4.6920898708E+00   -4.6783702753E+00   -4.6647306776E+00
   -4.6511703802E+00   -4.6376886934E+00   -4.6242849357E+00   -4.6109584332E+00
   -4.5977085201E+00   -4.5845345379E+00   -4.5714358358E+00   -4.5584117704E+00
   -4.5454617055E+00   -4.5325850123E+00   -4.5197810690E+00   -4.5070492608E+00
   -4.4943889798E+00   -4.4817996249E+00   -4.4692806018E+00   -4.4568313227E+00
   -4.4444512065E+00   -4.4321396783E+00   -4.4198961698E+00   -4.4077201188E+00
   -4.3956109693E+00   -4.3835681716E+00   -4.3715911816E+00   -4.3596794614E+00
   -4.3478324791E+00   -4.3360497082E+00   -4.3243306280E+00   -4.3126747237E+00
   -4.3010814857E+00   -4.2895504099E+00   -4.2780809978E+00   -4.2666727561E+00
   -4.2553251966E+00   -4.2440378365E+00   -4.2328101980E+00   -4.2216418084E+00
   -4.2105321999E+00   -4.1994809098E+00   -4.1884874799E+00   -4.1775514570E+00
   -4.1666723928E+00   -4.1558498433E+00   -4.1450833693E+00   -4.1343725361E+00
   -4.1237169135E+00   -4.1131160757E+00   -4.1025696013E+00   -4.0920770732E+00
   -4.0816380785E+00   -4.0712522086E+00   -4.0609190589E+00   -4.0506382291E+00
   -4.0404093228E+00   -4.0302319475E+00   -4.0201057150E+00   -4.0100302407E+00
   -4.0000051438E+00   -3.9900300475E+00   -3.9801045786E+00   -3.9702283678E+00
   -3.9604010492E+00   -3.9506222606E+00   -3.9408916435E+00   -3.9312088428E+00
   -3.9215735069E+00   -3.9119852877E+00   -3.9024438403E+00   -3.8929488235E+00
   -3.8834998990E+00   -3.8740967321E+00   -3.8647389913E+00   -3.8554263481E+00
   -3.8461584773E+00   -3.8369350567E+00   -3.8277557675E+00   -3.8186202936E+00
   -3.8095283220E+00   -3.8004795428E+00   -3.7914736488E+00   -3.7825103360E+00
   -3.7735893030E+00   -3.7647102515E+00   -3.7558728857E+00   -3.7470769128E+00
   -3.7383220426E+00   -3.7296079878E+00   -3.7209344635E+00   -3.7123011877E+00
   -3.7037078808E+00   -3.6951542660E+00   -3.6866400687E+00   -3.6781650173E+00
   -3.6697288424E+00   -3.6613312770E+00   -3.6529720567E+00   -3.6446509195E+00
   -3.6363676057E+00   -3.6281218580E+00   -3.6199134215E+00   -3.6117420435E+00
   -3.6036074735E+00   -3.5955094634E+00   -3.5874477674E+00   -3.5794221416E+00
   -3.5714323446E+00   -3.5634781369E+00   -3.5555592814E+00   -3.5476755427E+00
   -3.5398266880E+00   -3.5320124861E+00   -3.5242327080E+00   -3.5164871268E+00
   -3.5087755175E+00   -3.5010976571E+00   -3.4934533246E+00   -3.4858423007E+00
   -3.4782643683E+00   -3.4707193120E+00   -3.4632069184E+00   -3.4557269758E+00
   -3.4482792743E+00   -3.4408636060E+00   -3.4334797647E+00   -3.4261275459E+00
   -3.4188067468E+00   -3.4115171666E+00   -3.4042586059E+00   -3.3970308672E+00
   -3.3898337546E+00   -3.3826670737E+00   -3.3755306321E+00   -3.3684242387E+00
   -3.3613477041E+00   -3.3543008406E+00   -3.3472834620E+00   -3.3402953835E+00
   -3.3333364220E+00   -3.3264063960E+00   -3.3195051253E+00   -3.3126324313E+00
   -3.3057881370E+00   -3.2989720666E+00   -3.2921840459E+00   -3.2854239022E+00
   -3.2786914640E+00   -3.2719865614E+00   -3.2653090257E+00   -3.2586586899E+00
   -3.2520353880E+00   -3.2454389555E+00   -3.2388692292E+00   -3.2323260474E+00
   -3.2258092494E+00   -3.2193186759E+00   -3.2128541691E+00   -3.2064155722E+00
   -3.2000027297E+00   -3.1936154874E+00   -3.1872536923E+00   -3.1809171927E+00
   -3.1746058379E+00   -3.1683194787E+00   -3.1620579667E+00   -3.1558211551E+00
   -3.1496088979E+00   -3.1434210503E+00   -3.1372574689E+00   -3.1311180111E+00
   -3.1250025356E+00   -3.1189109022E+00   -3.1128429716E+00   -3.1067986059E+00
   -3.1007776680E+00   -3.0947800219E+00   -3.0888055329E+00   -3.0828540669E+00
   -3.0769254912E+00   -3.0710196740E+00   -3.0651364845E+00   -3.0592757929E+00
   -3.0534374704E+00   -3.0476213891E+00   -3.0418274223E+00   -3.0360554440E+00
   -3.0303053293E+00   -3.0245769541E+00   -3.0188701956E+00   -3.0131849314E+00
   -3.0075210404E+00   -3.0018784024E+00   -2.9962568978E+00   -2.9906564083E+00
   -2.9850768161E+00   -2.9795180046E+00   -2.9739798579E+00   -2.9684622609E+00
   -2.9629650994E+00   -2.9574882603E+00   -2.9520316308E+00   -2.9465950996E+00
   -2.9411785555E+00   -2.9357818888E+00   -2.9304049901E+00   -2.9250477510E+00
   -2.9197100639E+00   -2.9143918220E+00   -2.9090929191E+00   -2.9038132501E+00
   -2.8985527103E+00   -2.8933111960E+00   -2.8880886042E+00   -2.8828848326E+00
   -2.8776997796E+00   -2.8725333444E+00   -2.8673854269E+00   -2.8622559278E+00
   -2.8571447483E+00   -2.8520517906E+00   -2.8469769573E+00   -2.8419201518E+00
   -2.8368812783E+00   -2.8318602415E+00   -2.8268569470E+00   -2.8218713008E+00
   -2.8169032097E+00   -2.8119525812E+00   -2.8070193233E+00   -2.8021033448E+00
   -2.7972045551E+00   -2.7923228641E+00   -2.7874581826E+00   -2.7826104217E+00
   -2.7777794934E+00   -2.7729653100E+00   -2.7681677848E+00   -2.7633868313E+00
   -2.7586223640E+00   -2.7538742975E+00   -2.7491425475E+00   -2.7444270299E+00
   -2.7397276614E+00   -2.7350443591E+00   -2.7303770409E+00   -2.7257256249E+00
   -2.7210900301E+00   -2.7164701758E+00   -2.7118659822E+00   -2.7072773695E+00
   -2.7027042590E+00   -2.6981465722E+00   -2.6936042311E+00   -2.6890771584E+00
   -2.6845652772E+00   -2.6800685113E+00   -2.6755867847E+00   -2.6711200222E+00
   -2.6666681490E+00   -2.6622310906E+00   -2.6578087733E+00   -2.6534011238E+00
   -2.6490080691E+00   -2.6446295370E+00   -2.6402654555E+00   -2.6359157532E+00
   -2.6315803591E+00   -2.6272592029E+00   -2.6229522143E+00   -2.6186593240E+00