Ne    ONCVPSP-3.3.0  r_core=   1.31204   1.70576
     10.0000      8.0000      220408    zatom,zion,pspd
     8       2   1     4   400     0    pspcod,pspxc,lmax,lloc,mmax,r2well
  3.99000000  0.00000000  0.00000000    rchrg fchrg qchrg
     2     2     0     0     0    nproj
     1     1           extension_switch
   0                         2.3039777439218D+00 -4.7328573677471D-01
     1  0.0000000000000D+00  1.2930774229147D-09  5.0607329438179D-10
     2  1.0000000000000D-02  7.6670698879759D-02  1.3511865393252D-02
     3  2.0000000000000D-02  1.5322942318492D-01  2.7120181526974D-02
     4  3.0000000000000D-02  2.2956292572145D-01  4.0920346066032D-02
     5  4.0000000000000D-02  3.0555543898055D-01  5.5005661996930D-02
     6  5.0000000000000D-02  3.8108747695830D-01  6.9466318840533D-02
     7  6.0000000000000D-02  4.5603471041860D-01  8.4388407763973D-02
     8  7.0000000000000D-02  5.3026693854389D-01  9.9852981290703D-02
     9  8.0000000000000D-02  6.0364717862514D-01  1.1593516780160D-01
    10  9.0000000000000D-02  6.7603089385573D-01  1.3270335039824D-01
    11  1.0000000000000D-01  7.4726537743250D-01  1.5021841896916D-01
    12  1.1000000000000D-01  8.1718930905431D-01  1.6853310346959D-01
    13  1.2000000000000D-01  8.8563249756893D-01  1.8769139550369D-01
    14  1.3000000000000D-01  9.5241582098188D-01  2.0772806429714D-01
    15  1.4000000000000D-01  1.0173513723373D+00  2.2866827207737D-01
    16  1.5000000000000D-01  1.0802428171428D+00  2.5052729275240D-01
    17  1.6000000000000D-01  1.1408859650736D+00  2.7331033660835D-01
    18  1.7000000000000D-01  1.1990695556924D+00  2.9701248254529D-01
    19  1.8000000000000D-01  1.2545762548939D+00  3.2161871815367D-01
    20  1.9000000000000D-01  1.3071838557724D+00  3.4710408671397D-01
    21  2.0000000000000D-01  1.3566666746413D+00  3.7343393899371D-01
    22  2.1000000000000D-01  1.4027971300591D+00  4.0056428653299D-01
    23  2.2000000000000D-01  1.4453474899562D+00  4.2844225196581D-01
    24  2.3000000000000D-01  1.4840917693610D+00  4.5700661083228D-01
    25  2.4000000000000D-01  1.5188077588120D+00  4.8618841830986D-01
    26  2.5000000000000D-01  1.5492791613587D+00  5.1591171334105D-01
    27  2.6000000000000D-01  1.5752978141155D+00  5.4609429177224D-01
    28  2.7000000000000D-01  1.5966659686757D+00  5.7664853935308D-01
    29  2.8000000000000D-01  1.6131986033282D+00  6.0748231478700D-01
    30  2.9000000000000D-01  1.6247257389811D+00  6.3849987247964D-01
    31  3.0000000000000D-01  1.6310947299871D+00  6.6960281420781D-01
    32  3.1000000000000D-01  1.6321725007017D+00  7.0069105863419D-01
    33  3.2000000000000D-01  1.6278476986001D+00  7.3166381742432D-01
    34  3.3000000000000D-01  1.6180327351266D+00  7.6242056668539D-01
    35  3.4000000000000D-01  1.6026656861552D+00  7.9286200254133D-01
    36  3.5000000000000D-01  1.5817120249996D+00  8.2289096988467D-01
    37  3.6000000000000D-01  1.5551661623108D+00  8.5241335370028D-01
    38  3.7000000000000D-01  1.5230527689317D+00  8.8133892283541D-01
    39  3.8000000000000D-01  1.4854278598206D+00  9.0958211668871D-01
    40  3.9000000000000D-01  1.4423796194893D+00  9.3706276600199D-01
    41  4.0000000000000D-01  1.3940289520053D+00  9.6370673975305D-01
    42  4.1000000000000D-01  1.3405297414447D+00  9.8944651105831D-01
    43  4.2000000000000D-01  1.2820688117339D+00  1.0142216359874D+00
    44  4.3000000000000D-01  1.2188655780352D+00  1.0379791402593D+00
    45  4.4000000000000D-01  1.1511713851978D+00  1.0606738099160D+00
    46  4.5000000000000D-01  1.0792685322487D+00  1.0822683832450D+00
    47  4.6000000000000D-01  1.0034689854227D+00  1.1027336424274D+00
    48  4.7000000000000D-01  9.2411278576805D-01  1.1220484046178D+00
    49  4.8000000000000D-01  8.4156616088312D-01  1.1401994133906D+00
    50  4.9000000000000D-01  7.5621935379381D-01  1.1571811327107D+00
    51  5.0000000000000D-01  6.6848418533397D-01  1.1729954467810D+00
    52  5.1000000000000D-01  5.7879136959784D-01  1.1876512702801D+00
    53  5.2000000000000D-01  4.8758760505887D-01  1.2011640746039D+00
    54  5.3000000000000D-01  3.9533246675386D-01  1.2135553367699D+00
    55  5.4000000000000D-01  3.0249512748291D-01  1.2248519185962D+00
    56  5.5000000000000D-01  2.0955093824066D-01  1.2350853846429D+00
    57  5.6000000000000D-01  1.1697790004116D-01  1.2442912681685D+00
    58  5.7000000000000D-01  2.5253060910147D-02  1.2525082950129D+00
    59  5.8000000000000D-01 -6.5151126939878D-02  1.2597775758570D+00
    60  5.9000000000000D-01 -1.5377045386924D-01  1.2661417777222D+00
    61  6.0000000000000D-01 -2.4015256715382D-01  1.2716442858531D+00
    62  6.1000000000000D-01 -3.2386051649313D-01  1.2763283672729D+00
    63  6.2000000000000D-01 -4.0447619460385D-01  1.2802363473112D+00
    64  6.3000000000000D-01 -4.8160363757159D-01  1.2834088102695D+00
    65  6.4000000000000D-01 -5.5487215078075D-01  1.2858838351252D+00
    66  6.5000000000000D-01 -6.2393922778586D-01  1.2876962767717D+00
    67  6.6000000000000D-01 -6.8849323141406D-01  1.2888771027564D+00
    68  6.7000000000000D-01 -7.4825580866533D-01  1.2894527948235D+00
    69  6.8000000000000D-01 -8.0298401359398D-01  1.2894448237889D+00
    70  6.9000000000000D-01 -8.5247211528748D-01  1.2888692053928D+00
    71  7.0000000000000D-01 -8.9655307126171D-01  1.2877361437887D+00
    72  7.1000000000000D-01 -9.3509965003426D-01  1.2860497682591D+00
    73  7.2000000000000D-01 -9.6802519029731D-01  1.2838079676008D+00
    74  7.3000000000000D-01 -9.9528398793206D-01  1.2810023254142D+00
    75  7.4000000000000D-01 -1.0168713060446D+00  1.2776181582776D+00
    76  7.5000000000000D-01 -1.0328230072251D+00  1.2736346574986D+00
    77  7.6000000000000D-01 -1.0432148112941D+00  1.2690251338289D+00
    78  7.7000000000000D-01 -1.0481611858189D+00  1.2637573632288D+00
    79  7.8000000000000D-01 -1.0478138806929D+00  1.2577940304659D+00
    80  7.9000000000000D-01 -1.0423601219244D+00  1.2510932660798D+00
    81  8.0000000000000D-01 -1.0320204835146D+00  1.2436092710232D+00
    82  8.1000000000000D-01 -1.0170464598330D+00  1.2352930221350D+00
    83  8.2000000000000D-01 -9.9771776419294D-01  1.2260930505211D+00
    84  8.3000000000000D-01 -9.7433938234583D-01  1.2159562839236D+00
    85  8.4000000000000D-01 -9.4723841232377D-01  1.2048289432678D+00
    86  8.5000000000000D-01 -9.1676072441763D-01  1.1926574827982D+00
    87  8.6000000000000D-01 -8.8326747706940D-01  1.1793895625535D+00
    88  8.7000000000000D-01 -8.4713152604622D-01  1.1649750414080D+00
    89  8.8000000000000D-01 -8.0873376543547D-01  1.1493669785169D+00
    90  8.9000000000000D-01 -7.6845943973663D-01  1.1325226307585D+00
    91  9.0000000000000D-01 -7.2669446661812D-01  1.1144044336721D+00
    92  9.1000000000000D-01 -6.8382180974847D-01  1.0949809534422D+00
    93  9.2000000000000D-01 -6.4021794050259D-01  1.0742277976843D+00
    94  9.3000000000000D-01 -5.9624942628902D-01  1.0521284731420D+00
    95  9.4000000000000D-01 -5.5226968175449D-01  1.0286751789027D+00
    96  9.5000000000000D-01 -5.0861591721713D-01  1.0038695243769D+00
    97  9.6000000000000D-01 -4.6560631634991D-01  9.7772316206898D-01
    98  9.7000000000000D-01 -4.2353747248862D-01  9.5025832605335D-01
    99  9.8000000000000D-01 -3.8268210989363D-01  9.2150826809008D-01
   100  9.9000000000000D-01 -3.4328711294178D-01  8.9151758444191D-01
   101  1.0000000000000D+00 -3.0557188264164D-01  8.6034242765439D-01
   102  1.0100000000000D+00 -2.6972703601098D-01  8.2805059885575D-01
   103  1.0200000000000D+00 -2.3591345984489D-01  7.9472151747931D-01
   104  1.0300000000000D+00 -2.0426172614947D-01  7.6044606673918D-01
   105  1.0400000000000D+00 -1.7487187242224D-01  7.2532631456401D-01
   106  1.0500000000000D+00 -1.4781354552192D-01  6.8947511118375D-01
   107  1.0600000000000D+00 -1.2312650356868D-01  6.5301556600747D-01
   108  1.0700000000000D+00 -1.0082146616615D-01  6.1608040782220D-01
   109  1.0800000000000D+00 -8.0881298971709D-02  5.7881123377225D-01
   110  1.0900000000000D+00 -6.3262514819138D-02  5.4135765385826D-01
   111  1.1000000000000D+00 -4.7897069802293D-02  5.0387633896545D-01
   112  1.1100000000000D+00 -3.4694429002255D-02  4.6652998167438D-01
   113  1.1200000000000D+00 -2.3543873551570D-02  4.2948618010370D-01
   114  1.1300000000000D+00 -1.4317017590001D-02  3.9291625607648D-01
   115  1.1400000000000D+00 -6.8705015655087D-03  3.5699401959833D-01
   116  1.1500000000000D+00 -1.0488255135897D-03  3.2189449256307D-01
   117  1.1600000000000D+00  3.3127152658591D-03  2.8779260499476D-01
   118  1.1700000000000D+00  6.3850311299220D-03  2.5486187758610D-01
   119  1.1800000000000D+00  8.3422154817274D-03  2.2327310457082D-01
   120  1.1900000000000D+00  9.3585389788792D-03  1.9319305109376D-01
   121  1.2000000000000D+00  9.6055004522471D-03  1.6478317906033D-01
   122  1.2100000000000D+00  9.2489741821207D-03  1.3819841533895D-01
   123  1.2200000000000D+00  8.4464921757397D-03  1.1358597581229D-01
   124  1.2300000000000D+00  7.3446981446780D-03  9.1084258075653D-02
   125  1.2400000000000D+00  6.0770080827185D-03  7.0821814940336D-02
   126  1.2500000000000D+00  4.7615109713699D-03  5.2916420405216D-02
   127  1.2600000000000D+00  3.4991386951610D-03  3.7474238192462D-02
   128  1.2700000000000D+00  2.3727266675295D-03  2.4594303150428D-02
   129  1.2800000000000D+00  1.4430568769722D-03  1.4343938217477D-02
   130  1.2900000000000D+00  7.4625409878504D-04  6.7543137963704D-03
   131  1.3000000000000D+00  3.3641117726591D-04  2.0963236938048D-03
   132  1.3100000000000D+00  1.6585243841030D-04  1.3374279660240D-04
   133  1.3200000000000D+00  5.8997914195828D-05 -1.7251966784677D-04
   134  1.3300000000000D+00 -6.3985116962669D-06  2.8923977396312D-05
   135  1.3400000000000D+00 -5.8861940623983D-06  3.3391295800198D-05
   136  1.3500000000000D+00  2.5685360816175D-06 -9.9011121277130D-06
   137  1.3600000000000D+00 -1.5074024827028D-08  2.5090299483624D-09
   138  1.3700000000000D+00 -3.6912048089740D-07  6.1439088216502D-08
   139  1.3800000000000D+00  0.0000000000000D+00  0.0000000000000D+00
   140  1.3900000000000D+00  0.0000000000000D+00  0.0000000000000D+00
   141  1.4000000000000D+00  0.0000000000000D+00  0.0000000000000D+00
   142  1.4100000000000D+00  0.0000000000000D+00  0.0000000000000D+00
   143  1.4200000000000D+00  0.0000000000000D+00  0.0000000000000D+00
   144  1.4300000000000D+00  0.0000000000000D+00  0.0000000000000D+00
   145  1.4400000000000D+00  0.0000000000000D+00  0.0000000000000D+00
   146  1.4500000000000D+00  0.0000000000000D+00  0.0000000000000D+00
   147  1.4600000000000D+00  0.0000000000000D+00  0.0000000000000D+00
   148  1.4700000000000D+00  0.0000000000000D+00  0.0000000000000D+00
   149  1.4800000000000D+00  0.0000000000000D+00  0.0000000000000D+00
   150  1.4900000000000D+00  0.0000000000000D+00  0.0000000000000D+00
   151  1.5000000000000D+00  0.0000000000000D+00  0.0000000000000D+00
   152  1.5100000000000D+00  0.0000000000000D+00  0.0000000000000D+00
   153  1.5200000000000D+00  0.0000000000000D+00  0.0000000000000D+00
   154  1.5300000000000D+00  0.0000000000000D+00  0.0000000000000D+00
   155  1.5400000000000D+00  0.0000000000000D+00  0.0000000000000D+00
   156  1.5500000000000D+00  0.0000000000000D+00  0.0000000000000D+00
   157  1.5600000000000D+00  0.0000000000000D+00  0.0000000000000D+00
   158  1.5700000000000D+00  0.0000000000000D+00  0.0000000000000D+00
   159  1.5800000000000D+00  0.0000000000000D+00  0.0000000000000D+00
   160  1.5900000000000D+00  0.0000000000000D+00  0.0000000000000D+00
   161  1.6000000000000D+00  0.0000000000000D+00  0.0000000000000D+00
   162  1.6100000000000D+00  0.0000000000000D+00  0.0000000000000D+00
   163  1.6200000000000D+00  0.0000000000000D+00  0.0000000000000D+00
   164  1.6300000000000D+00  0.0000000000000D+00  0.0000000000000D+00
   165  1.6400000000000D+00  0.0000000000000D+00  0.0000000000000D+00
   166  1.6500000000000D+00  0.0000000000000D+00  0.0000000000000D+00
   167  1.6600000000000D+00  0.0000000000000D+00  0.0000000000000D+00
   168  1.6700000000000D+00  0.0000000000000D+00  0.0000000000000D+00
   169  1.6800000000000D+00  0.0000000000000D+00  0.0000000000000D+00
   170  1.6900000000000D+00  0.0000000000000D+00  0.0000000000000D+00
   171  1.7000000000000D+00  0.0000000000000D+00  0.0000000000000D+00
   172  1.7100000000000D+00  0.0000000000000D+00  0.0000000000000D+00
   173  1.7200000000000D+00  0.0000000000000D+00  0.0000000000000D+00
   174  1.7300000000000D+00  0.0000000000000D+00  0.0000000000000D+00
   175  1.7400000000000D+00  0.0000000000000D+00  0.0000000000000D+00
   176  1.7500000000000D+00  0.0000000000000D+00  0.0000000000000D+00
   177  1.7600000000000D+00  0.0000000000000D+00  0.0000000000000D+00
   178  1.7700000000000D+00  0.0000000000000D+00  0.0000000000000D+00
   179  1.7800000000000D+00  0.0000000000000D+00  0.0000000000000D+00
   180  1.7900000000000D+00  0.0000000000000D+00  0.0000000000000D+00
   181  1.8000000000000D+00  0.0000000000000D+00  0.0000000000000D+00
   182  1.8100000000000D+00  0.0000000000000D+00  0.0000000000000D+00
   183  1.8200000000000D+00  0.0000000000000D+00  0.0000000000000D+00
   184  1.8300000000000D+00  0.0000000000000D+00  0.0000000000000D+00
   185  1.8400000000000D+00  0.0000000000000D+00  0.0000000000000D+00
   186  1.8500000000000D+00  0.0000000000000D+00  0.0000000000000D+00
   187  1.8600000000000D+00  0.0000000000000D+00  0.0000000000000D+00
   188  1.8700000000000D+00  0.0000000000000D+00  0.0000000000000D+00
   189  1.8800000000000D+00  0.0000000000000D+00  0.0000000000000D+00
   190  1.8900000000000D+00  0.0000000000000D+00  0.0000000000000D+00
   191  1.9000000000000D+00  0.0000000000000D+00  0.0000000000000D+00
   192  1.9100000000000D+00  0.0000000000000D+00  0.0000000000000D+00
   193  1.9200000000000D+00  0.0000000000000D+00  0.0000000000000D+00
   194  1.9300000000000D+00  0.0000000000000D+00  0.0000000000000D+00
   195  1.9400000000000D+00  0.0000000000000D+00  0.0000000000000D+00
   196  1.9500000000000D+00  0.0000000000000D+00  0.0000000000000D+00
   197  1.9600000000000D+00  0.0000000000000D+00  0.0000000000000D+00
   198  1.9700000000000D+00  0.0000000000000D+00  0.0000000000000D+00
   199  1.9800000000000D+00  0.0000000000000D+00  0.0000000000000D+00
   200  1.9900000000000D+00  0.0000000000000D+00  0.0000000000000D+00
   201  2.0000000000000D+00  0.0000000000000D+00  0.0000000000000D+00
   202  2.0100000000000D+00  0.0000000000000D+00  0.0000000000000D+00
   203  2.0200000000000D+00  0.0000000000000D+00  0.0000000000000D+00
   204  2.0300000000000D+00  0.0000000000000D+00  0.0000000000000D+00
   205  2.0400000000000D+00  0.0000000000000D+00  0.0000000000000D+00
   206  2.0500000000000D+00  0.0000000000000D+00  0.0000000000000D+00
   207  2.0600000000000D+00  0.0000000000000D+00  0.0000000000000D+00
   208  2.0700000000000D+00  0.0000000000000D+00  0.0000000000000D+00
   209  2.0800000000000D+00  0.0000000000000D+00  0.0000000000000D+00
   210  2.0900000000000D+00  0.0000000000000D+00  0.0000000000000D+00
   211  2.1000000000000D+00  0.0000000000000D+00  0.0000000000000D+00
   212  2.1100000000000D+00  0.0000000000000D+00  0.0000000000000D+00
   213  2.1200000000000D+00  0.0000000000000D+00  0.0000000000000D+00
   214  2.1300000000000D+00  0.0000000000000D+00  0.0000000000000D+00
   215  2.1400000000000D+00  0.0000000000000D+00  0.0000000000000D+00
   216  2.1500000000000D+00  0.0000000000000D+00  0.0000000000000D+00
   217  2.1600000000000D+00  0.0000000000000D+00  0.0000000000000D+00
   218  2.1700000000000D+00  0.0000000000000D+00  0.0000000000000D+00
   219  2.1800000000000D+00  0.0000000000000D+00  0.0000000000000D+00
   220  2.1900000000000D+00  0.0000000000000D+00  0.0000000000000D+00
   221  2.2000000000000D+00  0.0000000000000D+00  0.0000000000000D+00
   222  2.2100000000000D+00  0.0000000000000D+00  0.0000000000000D+00
   223  2.2200000000000D+00  0.0000000000000D+00  0.0000000000000D+00
   224  2.2300000000000D+00  0.0000000000000D+00  0.0000000000000D+00
   225  2.2400000000000D+00  0.0000000000000D+00  0.0000000000000D+00
   226  2.2500000000000D+00  0.0000000000000D+00  0.0000000000000D+00
   227  2.2600000000000D+00  0.0000000000000D+00  0.0000000000000D+00
   228  2.2700000000000D+00  0.0000000000000D+00  0.0000000000000D+00
   229  2.2800000000000D+00  0.0000000000000D+00  0.0000000000000D+00
   230  2.2900000000000D+00  0.0000000000000D+00  0.0000000000000D+00
   231  2.3000000000000D+00  0.0000000000000D+00  0.0000000000000D+00
   232  2.3100000000000D+00  0.0000000000000D+00  0.0000000000000D+00
   233  2.3200000000000D+00  0.0000000000000D+00  0.0000000000000D+00
   234  2.3300000000000D+00  0.0000000000000D+00  0.0000000000000D+00
   235  2.3400000000000D+00  0.0000000000000D+00  0.0000000000000D+00
   236  2.3500000000000D+00  0.0000000000000D+00  0.0000000000000D+00
   237  2.3600000000000D+00  0.0000000000000D+00  0.0000000000000D+00
   238  2.3700000000000D+00  0.0000000000000D+00  0.0000000000000D+00
   239  2.3800000000000D+00  0.0000000000000D+00  0.0000000000000D+00
   240  2.3900000000000D+00  0.0000000000000D+00  0.0000000000000D+00
   241  2.4000000000000D+00  0.0000000000000D+00  0.0000000000000D+00
   242  2.4100000000000D+00  0.0000000000000D+00  0.0000000000000D+00
   243  2.4200000000000D+00  0.0000000000000D+00  0.0000000000000D+00
   244  2.4300000000000D+00  0.0000000000000D+00  0.0000000000000D+00
   245  2.4400000000000D+00  0.0000000000000D+00  0.0000000000000D+00
   246  2.4500000000000D+00  0.0000000000000D+00  0.0000000000000D+00
   247  2.4600000000000D+00  0.0000000000000D+00  0.0000000000000D+00
   248  2.4700000000000D+00  0.0000000000000D+00  0.0000000000000D+00
   249  2.4800000000000D+00  0.0000000000000D+00  0.0000000000000D+00
   250  2.4900000000000D+00  0.0000000000000D+00  0.0000000000000D+00
   251  2.5000000000000D+00  0.0000000000000D+00  0.0000000000000D+00
   252  2.5100000000000D+00  0.0000000000000D+00  0.0000000000000D+00
   253  2.5200000000000D+00  0.0000000000000D+00  0.0000000000000D+00
   254  2.5300000000000D+00  0.0000000000000D+00  0.0000000000000D+00
   255  2.5400000000000D+00  0.0000000000000D+00  0.0000000000000D+00
   256  2.5500000000000D+00  0.0000000000000D+00  0.0000000000000D+00
   257  2.5600000000000D+00  0.0000000000000D+00  0.0000000000000D+00
   258  2.5700000000000D+00  0.0000000000000D+00  0.0000000000000D+00
   259  2.5800000000000D+00  0.0000000000000D+00  0.0000000000000D+00
   260  2.5900000000000D+00  0.0000000000000D+00  0.0000000000000D+00
   261  2.6000000000000D+00  0.0000000000000D+00  0.0000000000000D+00
   262  2.6100000000000D+00  0.0000000000000D+00  0.0000000000000D+00
   263  2.6200000000000D+00  0.0000000000000D+00  0.0000000000000D+00
   264  2.6300000000000D+00  0.0000000000000D+00  0.0000000000000D+00
   265  2.6400000000000D+00  0.0000000000000D+00  0.0000000000000D+00
   266  2.6500000000000D+00  0.0000000000000D+00  0.0000000000000D+00
   267  2.6600000000000D+00  0.0000000000000D+00  0.0000000000000D+00
   268  2.6700000000000D+00  0.0000000000000D+00  0.0000000000000D+00
   269  2.6800000000000D+00  0.0000000000000D+00  0.0000000000000D+00
   270  2.6900000000000D+00  0.0000000000000D+00  0.0000000000000D+00
   271  2.7000000000000D+00  0.0000000000000D+00  0.0000000000000D+00
   272  2.7100000000000D+00  0.0000000000000D+00  0.0000000000000D+00
   273  2.7200000000000D+00  0.0000000000000D+00  0.0000000000000D+00
   274  2.7300000000000D+00  0.0000000000000D+00  0.0000000000000D+00
   275  2.7400000000000D+00  0.0000000000000D+00  0.0000000000000D+00
   276  2.7500000000000D+00  0.0000000000000D+00  0.0000000000000D+00
   277  2.7600000000000D+00  0.0000000000000D+00  0.0000000000000D+00
   278  2.7700000000000D+00  0.0000000000000D+00  0.0000000000000D+00
   279  2.7800000000000D+00  0.0000000000000D+00  0.0000000000000D+00
   280  2.7900000000000D+00  0.0000000000000D+00  0.0000000000000D+00
   281  2.8000000000000D+00  0.0000000000000D+00  0.0000000000000D+00
   282  2.8100000000000D+00  0.0000000000000D+00  0.0000000000000D+00
   283  2.8200000000000D+00  0.0000000000000D+00  0.0000000000000D+00
   284  2.8300000000000D+00  0.0000000000000D+00  0.0000000000000D+00
   285  2.8400000000000D+00  0.0000000000000D+00  0.0000000000000D+00
   286  2.8500000000000D+00  0.0000000000000D+00  0.0000000000000D+00
   287  2.8600000000000D+00  0.0000000000000D+00  0.0000000000000D+00
   288  2.8700000000000D+00  0.0000000000000D+00  0.0000000000000D+00
   289  2.8800000000000D+00  0.0000000000000D+00  0.0000000000000D+00
   290  2.8900000000000D+00  0.0000000000000D+00  0.0000000000000D+00
   291  2.9000000000000D+00  0.0000000000000D+00  0.0000000000000D+00
   292  2.9100000000000D+00  0.0000000000000D+00  0.0000000000000D+00
   293  2.9200000000000D+00  0.0000000000000D+00  0.0000000000000D+00
   294  2.9300000000000D+00  0.0000000000000D+00  0.0000000000000D+00
   295  2.9400000000000D+00  0.0000000000000D+00  0.0000000000000D+00
   296  2.9500000000000D+00  0.0000000000000D+00  0.0000000000000D+00
   297  2.9600000000000D+00  0.0000000000000D+00  0.0000000000000D+00
   298  2.9700000000000D+00  0.0000000000000D+00  0.0000000000000D+00
   299  2.9800000000000D+00  0.0000000000000D+00  0.0000000000000D+00
   300  2.9900000000000D+00  0.0000000000000D+00  0.0000000000000D+00
   301  3.0000000000000D+00  0.0000000000000D+00  0.0000000000000D+00
   302  3.0100000000000D+00  0.0000000000000D+00  0.0000000000000D+00
   303  3.0200000000000D+00  0.0000000000000D+00  0.0000000000000D+00
   304  3.0300000000000D+00  0.0000000000000D+00  0.0000000000000D+00
   305  3.0400000000000D+00  0.0000000000000D+00  0.0000000000000D+00
   306  3.0500000000000D+00  0.0000000000000D+00  0.0000000000000D+00
   307  3.0600000000000D+00  0.0000000000000D+00  0.0000000000000D+00
   308  3.0700000000000D+00  0.0000000000000D+00  0.0000000000000D+00
   309  3.0800000000000D+00  0.0000000000000D+00  0.0000000000000D+00
   310  3.0900000000000D+00  0.0000000000000D+00  0.0000000000000D+00
   311  3.1000000000000D+00  0.0000000000000D+00  0.0000000000000D+00
   312  3.1100000000000D+00  0.0000000000000D+00  0.0000000000000D+00
   313  3.1200000000000D+00  0.0000000000000D+00  0.0000000000000D+00
   314  3.1300000000000D+00  0.0000000000000D+00  0.0000000000000D+00
   315  3.1400000000000D+00  0.0000000000000D+00  0.0000000000000D+00
   316  3.1500000000000D+00  0.0000000000000D+00  0.0000000000000D+00
   317  3.1600000000000D+00  0.0000000000000D+00  0.0000000000000D+00
   318  3.1700000000000D+00  0.0000000000000D+00  0.0000000000000D+00
   319  3.1800000000000D+00  0.0000000000000D+00  0.0000000000000D+00
   320  3.1900000000000D+00  0.0000000000000D+00  0.0000000000000D+00
   321  3.2000000000000D+00  0.0000000000000D+00  0.0000000000000D+00
   322  3.2100000000000D+00  0.0000000000000D+00  0.0000000000000D+00
   323  3.2200000000000D+00  0.0000000000000D+00  0.0000000000000D+00
   324  3.2300000000000D+00  0.0000000000000D+00  0.0000000000000D+00
   325  3.2400000000000D+00  0.0000000000000D+00  0.0000000000000D+00
   326  3.2500000000000D+00  0.0000000000000D+00  0.0000000000000D+00
   327  3.2600000000000D+00  0.0000000000000D+00  0.0000000000000D+00
   328  3.2700000000000D+00  0.0000000000000D+00  0.0000000000000D+00
   329  3.2800000000000D+00  0.0000000000000D+00  0.0000000000000D+00
   330  3.2900000000000D+00  0.0000000000000D+00  0.0000000000000D+00
   331  3.3000000000000D+00  0.0000000000000D+00  0.0000000000000D+00
   332  3.3100000000000D+00  0.0000000000000D+00  0.0000000000000D+00
   333  3.3200000000000D+00  0.0000000000000D+00  0.0000000000000D+00
   334  3.3300000000000D+00  0.0000000000000D+00  0.0000000000000D+00
   335  3.3400000000000D+00  0.0000000000000D+00  0.0000000000000D+00
   336  3.3500000000000D+00  0.0000000000000D+00  0.0000000000000D+00
   337  3.3600000000000D+00  0.0000000000000D+00  0.0000000000000D+00
   338  3.3700000000000D+00  0.0000000000000D+00  0.0000000000000D+00
   339  3.3800000000000D+00  0.0000000000000D+00  0.0000000000000D+00
   340  3.3900000000000D+00  0.0000000000000D+00  0.0000000000000D+00
   341  3.4000000000000D+00  0.0000000000000D+00  0.0000000000000D+00
   342  3.4100000000000D+00  0.0000000000000D+00  0.0000000000000D+00
   343  3.4200000000000D+00  0.0000000000000D+00  0.0000000000000D+00
   344  3.4300000000000D+00  0.0000000000000D+00  0.0000000000000D+00
   345  3.4400000000000D+00  0.0000000000000D+00  0.0000000000000D+00
   346  3.4500000000000D+00  0.0000000000000D+00  0.0000000000000D+00
   347  3.4600000000000D+00  0.0000000000000D+00  0.0000000000000D+00
   348  3.4700000000000D+00  0.0000000000000D+00  0.0000000000000D+00
   349  3.4800000000000D+00  0.0000000000000D+00  0.0000000000000D+00
   350  3.4900000000000D+00  0.0000000000000D+00  0.0000000000000D+00
   351  3.5000000000000D+00  0.0000000000000D+00  0.0000000000000D+00
   352  3.5100000000000D+00  0.0000000000000D+00  0.0000000000000D+00
   353  3.5200000000000D+00  0.0000000000000D+00  0.0000000000000D+00
   354  3.5300000000000D+00  0.0000000000000D+00  0.0000000000000D+00
   355  3.5400000000000D+00  0.0000000000000D+00  0.0000000000000D+00
   356  3.5500000000000D+00  0.0000000000000D+00  0.0000000000000D+00
   357  3.5600000000000D+00  0.0000000000000D+00  0.0000000000000D+00
   358  3.5700000000000D+00  0.0000000000000D+00  0.0000000000000D+00
   359  3.5800000000000D+00  0.0000000000000D+00  0.0000000000000D+00
   360  3.5900000000000D+00  0.0000000000000D+00  0.0000000000000D+00
   361  3.6000000000000D+00  0.0000000000000D+00  0.0000000000000D+00
   362  3.6100000000000D+00  0.0000000000000D+00  0.0000000000000D+00
   363  3.6200000000000D+00  0.0000000000000D+00  0.0000000000000D+00
   364  3.6300000000000D+00  0.0000000000000D+00  0.0000000000000D+00
   365  3.6400000000000D+00  0.0000000000000D+00  0.0000000000000D+00
   366  3.6500000000000D+00  0.0000000000000D+00  0.0000000000000D+00
   367  3.6600000000000D+00  0.0000000000000D+00  0.0000000000000D+00
   368  3.6700000000000D+00  0.0000000000000D+00  0.0000000000000D+00
   369  3.6800000000000D+00  0.0000000000000D+00  0.0000000000000D+00
   370  3.6900000000000D+00  0.0000000000000D+00  0.0000000000000D+00
   371  3.7000000000000D+00  0.0000000000000D+00  0.0000000000000D+00
   372  3.7100000000000D+00  0.0000000000000D+00  0.0000000000000D+00
   373  3.7200000000000D+00  0.0000000000000D+00  0.0000000000000D+00
   374  3.7300000000000D+00  0.0000000000000D+00  0.0000000000000D+00
   375  3.7400000000000D+00  0.0000000000000D+00  0.0000000000000D+00
   376  3.7500000000000D+00  0.0000000000000D+00  0.0000000000000D+00
   377  3.7600000000000D+00  0.0000000000000D+00  0.0000000000000D+00
   378  3.7700000000000D+00  0.0000000000000D+00  0.0000000000000D+00
   379  3.7800000000000D+00  0.0000000000000D+00  0.0000000000000D+00
   380  3.7900000000000D+00  0.0000000000000D+00  0.0000000000000D+00
   381  3.8000000000000D+00  0.0000000000000D+00  0.0000000000000D+00
   382  3.8100000000000D+00  0.0000000000000D+00  0.0000000000000D+00
   383  3.8200000000000D+00  0.0000000000000D+00  0.0000000000000D+00
   384  3.8300000000000D+00  0.0000000000000D+00  0.0000000000000D+00
   385  3.8400000000000D+00  0.0000000000000D+00  0.0000000000000D+00
   386  3.8500000000000D+00  0.0000000000000D+00  0.0000000000000D+00
   387  3.8600000000000D+00  0.0000000000000D+00  0.0000000000000D+00
   388  3.8700000000000D+00  0.0000000000000D+00  0.0000000000000D+00
   389  3.8800000000000D+00  0.0000000000000D+00  0.0000000000000D+00
   390  3.8900000000000D+00  0.0000000000000D+00  0.0000000000000D+00
   391  3.9000000000000D+00  0.0000000000000D+00  0.0000000000000D+00
   392  3.9100000000000D+00  0.0000000000000D+00  0.0000000000000D+00
   393  3.9200000000000D+00  0.0000000000000D+00  0.0000000000000D+00
   394  3.9300000000000D+00  0.0000000000000D+00  0.0000000000000D+00
   395  3.9400000000000D+00  0.0000000000000D+00  0.0000000000000D+00
   396  3.9500000000000D+00  0.0000000000000D+00  0.0000000000000D+00
   397  3.9600000000000D+00  0.0000000000000D+00  0.0000000000000D+00
   398  3.9700000000000D+00  0.0000000000000D+00  0.0000000000000D+00
   399  3.9800000000000D+00  0.0000000000000D+00  0.0000000000000D+00
   400  3.9900000000000D+00  0.0000000000000D+00  0.0000000000000D+00
   1                        -5.1797003327355D+00 -1.6803840983418D+00
     1  0.0000000000000D+00 -9.2399768392148D-11  2.8499296325646D-10
     2  1.0000000000000D-02  1.4021074732233D-03 -3.7137433871763D-04
     3  2.0000000000000D-02  5.6040314041164D-03 -1.4837738592195D-03
     4  3.0000000000000D-02  1.2592583838108D-02 -3.3320228293500D-03
     5  4.0000000000000D-02  2.2345809943492D-02 -5.9074777018140D-03
     6  5.0000000000000D-02  3.4833025836521D-02 -9.1980016720256D-03
     7  6.0000000000000D-02  5.0014871905619D-02 -1.3187930149076D-02
     8  7.0000000000000D-02  6.7843381996147D-02 -1.7858028214313D-02
     9  8.0000000000000D-02  8.8262068909526D-02 -2.3185441427002D-02
    10  9.0000000000000D-02  1.1120602675491D-01 -2.9143641605330D-02
    11  1.0000000000000D-01  1.3660205076641D-01 -3.5702369460244D-02
    12  1.1000000000000D-01  1.6436877526234D-01 -4.2827576186200D-02
    13  1.2000000000000D-01  1.9441683047448D-01 -5.0481366314187D-02
    14  1.3000000000000D-01  2.2664901901210D-01 -5.8621944305118D-02
    15  1.4000000000000D-01  2.6096051274844D-01 -6.7203567504291D-02
    16  1.5000000000000D-01  2.9723907092359D-01 -7.6176508187253D-02
    17  1.6000000000000D-01  3.3536528024762D-01 -8.5487027502818D-02
    18  1.7000000000000D-01  3.7521281776038D-01 -9.5077364158423D-02
    19  1.8000000000000D-01  4.1664873715922D-01 -1.0488574069557D-01
    20  1.9000000000000D-01  4.5953377924256D-01 -1.1484639016787D-01
    21  2.0000000000000D-01  5.0372270703628D-01 -1.2488960596098D-01
    22  2.1000000000000D-01  5.4906466607055D-01 -1.3494181738242D-01