Kr    ONCVPSP-3.3.0  r_core=   1.20142   1.40295   1.61886
     36.0000     26.0000      220408    zatom,zion,pspd
     8       2   2     4   600     0    pspcod,pspxc,lmax,lloc,mmax,r2well
  5.99000000  0.00000000  0.00000000    rchrg fchrg qchrg
     2     2     2     0     0    nproj
     1     1           extension_switch
   0                        -4.5468680163076D+00  3.2839416454480D+00
     1  0.0000000000000D+00 -1.5152551435804D-10 -2.9761443309795D-09
     2  1.0000000000000D-02  6.0500794778629D-02 -9.5756013468688D-02
     3  2.0000000000000D-02  1.2089874892017D-01 -1.9113257076667D-01
     4  3.0000000000000D-02  1.8109132679724D-01 -2.8574987166233D-01
     5  4.0000000000000D-02  2.4097660021524D-01 -3.7922746750756D-01
     6  5.0000000000000D-02  3.0045354570145D-01 -4.7118403551956D-01
     7  6.0000000000000D-02  3.5942233419109D-01 -5.6123726909727D-01
     8  7.0000000000000D-02  4.1778461075687D-01 -6.4900391929696D-01
     9  8.0000000000000D-02  4.7544376218027D-01 -7.3410001961517D-01
    10  9.0000000000000D-02  5.3230517034769D-01 -8.1614132259365D-01
    11  1.0000000000000D-01  5.8827644967022D-01 -8.9474397252519D-01
    12  1.1000000000000D-01  6.4326766696915D-01 -9.6952543376727D-01
    13  1.2000000000000D-01  6.9719154253535D-01 -1.0401056889359D+00
    14  1.3000000000000D-01  7.4996363135705D-01 -1.1061087156370D+00
    15  1.4000000000000D-01  8.0150248381136D-01 -1.1671642444840D+00
    16  1.5000000000000D-01  8.5172978542583D-01 -1.2229097950442D+00
    17  1.6000000000000D-01  9.0057047563311D-01 -1.2729929801458D+00
    18  1.7000000000000D-01  9.4795284575798D-01 -1.3170740627666D+00
    19  1.8000000000000D-01  9.9380861678836D-01 -1.3548287436163D+00
    20  1.9000000000000D-01  1.0380729977832D+00 -1.3859511516083D+00
    21  2.0000000000000D-01  1.0806847260576D+00 -1.4101570038126D+00
    22  2.1000000000000D-01  1.1215860905521D+00 -1.4271868962613D+00
    23  2.2000000000000D-01  1.1607229400363D+00 -1.4368096822564D+00
    24  2.3000000000000D-01  1.1980446780114D+00 -1.4388258906777D+00
    25  2.4000000000000D-01  1.2335042463580D+00 -1.4330711332903D+00
    26  2.5000000000000D-01  1.2670580999200D+00 -1.4194194472794D+00
    27  2.6000000000000D-01  1.2986661743267D+00 -1.3977865172493D+00
    28  2.7000000000000D-01  1.3282918494155D+00 -1.3681327197719D+00
    29  2.8000000000000D-01  1.3559019106466D+00 -1.3304659332907D+00
    30  2.9000000000000D-01  1.3814665108760D+00 -1.2848440568034D+00
    31  3.0000000000000D-01  1.4049591347905D+00 -1.2313771822872D+00
    32  3.1000000000000D-01  1.4263565681977D+00 -1.1702293682740D+00
    33  3.2000000000000D-01  1.4456388742114D+00 -1.1016199653379D+00
    34  3.3000000000000D-01  1.4627893781803D+00 -1.0258244484800D+00
    35  3.4000000000000D-01  1.4777946629708D+00 -9.4317471645662D-01
    36  3.5000000000000D-01  1.4906445759485D+00 -8.5405882393560D-01
    37  3.6000000000000D-01  1.5013322486992D+00 -7.5892011892158D-01
    38  3.7000000000000D-01  1.5098541301979D+00 -6.5825576508288D-01
    39  3.8000000000000D-01  1.5162100337821D+00 -5.5261463635083D-01
    40  3.9000000000000D-01  1.5204031979119D+00 -4.4259457935007D-01
    41  4.0000000000000D-01  1.5224403603134D+00 -3.2883904774610D-01
    42  4.1000000000000D-01  1.5223318447113D+00 -2.1203312134748D-01
    43  4.2000000000000D-01  1.5200916589635D+00 -9.2898931655708D-02
    44  4.3000000000000D-01  1.5157376030234D+00  2.7809475612499D-02
    45  4.4000000000000D-01  1.5092913847860D+00  1.4931180182503D-01
    46  4.5000000000000D-01  1.5007787415160D+00  2.7080763295059D-01
    47  4.6000000000000D-01  1.4902295642306D+00  3.9148299769445D-01
    48  4.7000000000000D-01  1.4776780221137D+00  5.1051728320013D-01
    49  4.8000000000000D-01  1.4631626837790D+00  6.2709043846154D-01
    50  4.9000000000000D-01  1.4467266319879D+00  7.4039038955669D-01
    51  5.0000000000000D-01  1.4284175682578D+00  8.4962058565620D-01
    52  5.1000000000000D-01  1.4082879036889D+00  9.5400759057088D-01
    53  5.2000000000000D-01  1.3863948322766D+00  1.0528086314680D+00
    54  5.3000000000000D-01  1.3628003829830D+00  1.1453190143746D+00
    55  5.4000000000000D-01  1.3375714469037D+00  1.2308793152561D+00
    56  5.5000000000000D-01  1.3107797759967D+00  1.3088822558473D+00
    57  5.6000000000000D-01  1.2825019500293D+00  1.3787791750501D+00
    58  5.7000000000000D-01  1.2528193086539D+00  1.4400860095870D+00
    59  5.8000000000000D-01  1.2218178458401D+00  1.4923887017426D+00
    60  5.9000000000000D-01  1.1895880642625D+00  1.5353479573293D+00
    61  6.0000000000000D-01  1.1562247876738D+00  1.5687032835486D+00
    62  6.1000000000000D-01  1.1218269297737D+00  1.5922762439707D+00
    63  6.2000000000000D-01  1.0864972186061D+00  1.6059728765051D+00
    64  6.3000000000000D-01  1.0503418760862D+00  1.6097852297387D+00
    65  6.4000000000000D-01  1.0134702528496D+00  1.6037919833493D+00
    66  6.5000000000000D-01  9.7599441924272D-01  1.5881581293419D+00
    67  6.6000000000000D-01  9.3802871390633D-01  1.5631337023600D+00
    68  6.7000000000000D-01  8.9968925205117D-01  1.5290515592900D+00
    69  6.8000000000000D-01  8.6109339616747D-01  1.4863242205391D+00
    70  6.9000000000000D-01  8.2235919254266D-01  1.4354397975979D+00
    71  7.0000000000000D-01  7.8360477757156D-01  1.3769570435953D+00
    72  7.1000000000000D-01  7.4494775842822D-01  1.3114995754606D+00
    73  7.2000000000000D-01  7.0650457320868D-01  1.2397493276708D+00
    74  7.3000000000000D-01  6.6838983614958D-01  1.1624393083810D+00
    75  7.4000000000000D-01  6.3071567396438D-01  1.0803457387462D+00
    76  7.5000000000000D-01  5.9359105971196D-01  9.9427966534998D-01
    77  7.6000000000000D-01  5.5712115091342D-01  9.0507814369887D-01
    78  7.7000000000000D-01  5.2140663885429D-01  8.1359509756341D-01
    79  7.8000000000000D-01  4.8654311614773D-01  7.2069196448196D-01
    80  7.9000000000000D-01  4.5262046968399D-01  6.2722824186103D-01
    81  8.0000000000000D-01  4.1972230604911D-01  5.3405205073691D-01
    82  8.1000000000000D-01  3.8792541635966D-01  4.4199083534879D-01
    83  8.2000000000000D-01  3.5729928723002D-01  3.5184231617362D-01
    84  8.3000000000000D-01  3.2790566426353D-01  2.6436581197388D-01
    85  8.4000000000000D-01  2.9979817404205D-01  1.8027404271594D-01
    86  8.5000000000000D-01  2.7302201008209D-01  1.0022551996076D-01
    87  8.6000000000000D-01  2.4761368763538D-01  2.4817624560528D-02
    88  8.7000000000000D-01  2.2360087154211D-01 -4.5419536708078D-02
    89  8.8000000000000D-01  2.0100228060411D-01 -1.1002841348695D-01
    90  8.9000000000000D-01  1.7982767114117D-01 -1.6862836183411D-01
    91  9.0000000000000D-01  1.6007790153448D-01 -2.2091900240607D-01
    92  9.1000000000000D-01  1.4174507865941D-01 -2.6668254014042D-01
    93  9.2000000000000D-01  1.2481278617362D-01 -3.0578501230367D-01
    94  9.3000000000000D-01  1.0925639367055D-01 -3.3817644590209D-01
    95  9.4000000000000D-01  9.5043444742281D-02 -3.6388991997679D-01
    96  9.5000000000000D-01  8.2134121033808D-02 -3.8303954301925D-01
    97  9.6000000000000D-01  7.0481778425411D-02 -3.9581737044521D-01
    98  9.7000000000000D-01  6.0033550562894D-02 -4.0248930154641D-01
    99  9.8000000000000D-01  5.0731014082025D-02 -4.0339000937639D-01
   100  9.9000000000000D-01  4.2510909046211D-02 -3.9891697056459D-01
   101  1.0000000000000D+00  3.5305907373946D-02 -3.8952367444547D-01
   102  1.0100000000000D+00  2.9045421343469D-02 -3.7571210265390D-01
   103  1.0200000000000D+00  2.3656443667875D-02 -3.5802458081137D-01
   104  1.0300000000000D+00  1.9064410144830D-02 -3.3703511288284D-01
   105  1.0400000000000D+00  1.5194075486135D-02 -3.1334031649536D-01
   106  1.0500000000000D+00  1.1970392649400D-02 -2.8755008357180D-01
   107  1.0600000000000D+00  9.3193858309372D-03 -2.6027809484522D-01
   108  1.0700000000000D+00  7.1690072135532D-03 -2.3213231966610D-01
   109  1.0800000000000D+00  5.4499676448520D-03 -2.0370563319583D-01
   110  1.0900000000000D+00  4.0965316012199D-03 -1.7556668214049D-01
   111  1.1000000000000D+00  3.0472671344873D-03 -1.4825112699316D-01
   112  1.1100000000000D+00  2.2457418620416D-03 -1.2225338486901D-01
   113  1.1200000000000D+00  1.6411566431899D-03 -9.8018990226416D-02
   114  1.1300000000000D+00  1.1889092163999D-03 -7.5937682872034D-02
   115  1.1400000000000D+00  8.5108084885873D-04 -5.6337322663003D-02
   116  1.1500000000000D+00  5.9683979426054D-04 -3.9478720553573D-02
   117  1.1600000000000D+00  4.0279251651980D-04 -2.5552502305523D-02
   118  1.1700000000000D+00  2.5318033297297D-04 -1.4675253772319D-02
   119  1.1800000000000D+00  1.3819874570020D-04 -6.8344564455024D-03
   120  1.1900000000000D+00  6.4613702495894D-05 -2.1963627093268D-03
   121  1.2000000000000D+00  3.0885401372111D-05 -3.8750430424139D-04
   122  1.2100000000000D+00  8.5754859001357D-06  2.8135644622450D-06
   123  1.2200000000000D+00 -1.9086598266664D-06 -1.1206328134333D-05
   124  1.2300000000000D+00 -1.4150412801780D-07 -1.3660029658793D-06
   125  1.2400000000000D+00  4.3030684412550D-07  1.3803497285763D-06
   126  1.2500000000000D+00 -6.9971478686152D-08  7.0999579389883D-07
   127  1.2600000000000D+00 -2.1376238613162D-09  2.1690322671038D-08
   128  1.2700000000000D+00  0.0000000000000D+00  0.0000000000000D+00
   129  1.2800000000000D+00  0.0000000000000D+00  0.0000000000000D+00
   130  1.2900000000000D+00  0.0000000000000D+00  0.0000000000000D+00
   131  1.3000000000000D+00  0.0000000000000D+00  0.0000000000000D+00
   132  1.3100000000000D+00  0.0000000000000D+00  0.0000000000000D+00
   133  1.3200000000000D+00  0.0000000000000D+00  0.0000000000000D+00
   134  1.3300000000000D+00  0.0000000000000D+00  0.0000000000000D+00
   135  1.3400000000000D+00  0.0000000000000D+00  0.0000000000000D+00
   136  1.3500000000000D+00  0.0000000000000D+00  0.0000000000000D+00
   137  1.3600000000000D+00  0.0000000000000D+00  0.0000000000000D+00
   138  1.3700000000000D+00  0.0000000000000D+00  0.0000000000000D+00
   139  1.3800000000000D+00  0.0000000000000D+00  0.0000000000000D+00
   140  1.3900000000000D+00  0.0000000000000D+00  0.0000000000000D+00
   141  1.4000000000000D+00  0.0000000000000D+00  0.0000000000000D+00
   142  1.4100000000000D+00  0.0000000000000D+00  0.0000000000000D+00
   143  1.4200000000000D+00  0.0000000000000D+00  0.0000000000000D+00
   144  1.4300000000000D+00  0.0000000000000D+00  0.0000000000000D+00
   145  1.4400000000000D+00  0.0000000000000D+00  0.0000000000000D+00
   146  1.4500000000000D+00  0.0000000000000D+00  0.0000000000000D+00
   147  1.4600000000000D+00  0.0000000000000D+00  0.0000000000000D+00
   148  1.4700000000000D+00  0.0000000000000D+00  0.0000000000000D+00
   149  1.4800000000000D+00  0.0000000000000D+00  0.0000000000000D+00
   150  1.4900000000000D+00  0.0000000000000D+00  0.0000000000000D+00
   151  1.5000000000000D+00  0.0000000000000D+00  0.0000000000000D+00
   152  1.5100000000000D+00  0.0000000000000D+00  0.0000000000000D+00
   153  1.5200000000000D+00  0.0000000000000D+00  0.0000000000000D+00
   154  1.5300000000000D+00  0.0000000000000D+00  0.0000000000000D+00
   155  1.5400000000000D+00  0.0000000000000D+00  0.0000000000000D+00
   156  1.5500000000000D+00  0.0000000000000D+00  0.0000000000000D+00
   157  1.5600000000000D+00  0.0000000000000D+00  0.0000000000000D+00
   158  1.5700000000000D+00  0.0000000000000D+00  0.0000000000000D+00
   159  1.5800000000000D+00  0.0000000000000D+00  0.0000000000000D+00
   160  1.5900000000000D+00  0.0000000000000D+00  0.0000000000000D+00
   161  1.6000000000000D+00  0.0000000000000D+00  0.0000000000000D+00
   162  1.6100000000000D+00  0.0000000000000D+00  0.0000000000000D+00
   163  1.6200000000000D+00  0.0000000000000D+00  0.0000000000000D+00
   164  1.6300000000000D+00  0.0000000000000D+00  0.0000000000000D+00
   165  1.6400000000000D+00  0.0000000000000D+00  0.0000000000000D+00
   166  1.6500000000000D+00  0.0000000000000D+00  0.0000000000000D+00
   167  1.6600000000000D+00  0.0000000000000D+00  0.0000000000000D+00
   168  1.6700000000000D+00  0.0000000000000D+00  0.0000000000000D+00
   169  1.6800000000000D+00  0.0000000000000D+00  0.0000000000000D+00
   170  1.6900000000000D+00  0.0000000000000D+00  0.0000000000000D+00
   171  1.7000000000000D+00  0.0000000000000D+00  0.0000000000000D+00
   172  1.7100000000000D+00  0.0000000000000D+00  0.0000000000000D+00
   173  1.7200000000000D+00  0.0000000000000D+00  0.0000000000000D+00
   174  1.7300000000000D+00  0.0000000000000D+00  0.0000000000000D+00
   175  1.7400000000000D+00  0.0000000000000D+00  0.0000000000000D+00
   176  1.7500000000000D+00  0.0000000000000D+00  0.0000000000000D+00
   177  1.7600000000000D+00  0.0000000000000D+00  0.0000000000000D+00
   178  1.7700000000000D+00  0.0000000000000D+00  0.0000000000000D+00
   179  1.7800000000000D+00  0.0000000000000D+00  0.0000000000000D+00
   180  1.7900000000000D+00  0.0000000000000D+00  0.0000000000000D+00
   181  1.8000000000000D+00  0.0000000000000D+00  0.0000000000000D+00
   182  1.8100000000000D+00  0.0000000000000D+00  0.0000000000000D+00
   183  1.8200000000000D+00  0.0000000000000D+00  0.0000000000000D+00
   184  1.8300000000000D+00  0.0000000000000D+00  0.0000000000000D+00
   185  1.8400000000000D+00  0.0000000000000D+00  0.0000000000000D+00
   186  1.8500000000000D+00  0.0000000000000D+00  0.0000000000000D+00
   187  1.8600000000000D+00  0.0000000000000D+00  0.0000000000000D+00
   188  1.8700000000000D+00  0.0000000000000D+00  0.0000000000000D+00
   189  1.8800000000000D+00  0.0000000000000D+00  0.0000000000000D+00
   190  1.8900000000000D+00  0.0000000000000D+00  0.0000000000000D+00
   191  1.9000000000000D+00  0.0000000000000D+00  0.0000000000000D+00
   192  1.9100000000000D+00  0.0000000000000D+00  0.0000000000000D+00
   193  1.9200000000000D+00  0.0000000000000D+00  0.0000000000000D+00
   194  1.9300000000000D+00  0.0000000000000D+00  0.0000000000000D+00
   195  1.9400000000000D+00  0.0000000000000D+00  0.0000000000000D+00
   196  1.9500000000000D+00  0.0000000000000D+00  0.0000000000000D+00
   197  1.9600000000000D+00  0.0000000000000D+00  0.0000000000000D+00
   198  1.9700000000000D+00  0.0000000000000D+00  0.0000000000000D+00
   199  1.9800000000000D+00  0.0000000000000D+00  0.0000000000000D+00
   200  1.9900000000000D+00  0.0000000000000D+00  0.0000000000000D+00
   201  2.0000000000000D+00  0.0000000000000D+00  0.0000000000000D+00
   202  2.0100000000000D+00  0.0000000000000D+00  0.0000000000000D+00
   203  2.0200000000000D+00  0.0000000000000D+00  0.0000000000000D+00
   204  2.0300000000000D+00  0.0000000000000D+00  0.0000000000000D+00
   205  2.0400000000000D+00  0.0000000000000D+00  0.0000000000000D+00
   206  2.0500000000000D+00  0.0000000000000D+00  0.0000000000000D+00
   207  2.0600000000000D+00  0.0000000000000D+00  0.0000000000000D+00
   208  2.0700000000000D+00  0.0000000000000D+00  0.0000000000000D+00
   209  2.0800000000000D+00  0.0000000000000D+00  0.0000000000000D+00
   210  2.0900000000000D+00  0.0000000000000D+00  0.0000000000000D+00
   211  2.1000000000000D+00  0.0000000000000D+00  0.0000000000000D+00
   212  2.1100000000000D+00  0.0000000000000D+00  0.0000000000000D+00
   213  2.1200000000000D+00  0.0000000000000D+00  0.0000000000000D+00
   214  2.1300000000000D+00  0.0000000000000D+00  0.0000000000000D+00
   215  2.1400000000000D+00  0.0000000000000D+00  0.0000000000000D+00
   216  2.1500000000000D+00  0.0000000000000D+00  0.0000000000000D+00
   217  2.1600000000000D+00  0.0000000000000D+00  0.0000000000000D+00
   218  2.1700000000000D+00  0.0000000000000D+00  0.0000000000000D+00
   219  2.1800000000000D+00  0.0000000000000D+00  0.0000000000000D+00
   220  2.1900000000000D+00  0.0000000000000D+00  0.0000000000000D+00
   221  2.2000000000000D+00  0.0000000000000D+00  0.0000000000000D+00
   222  2.2100000000000D+00  0.0000000000000D+00  0.0000000000000D+00
   223  2.2200000000000D+00  0.0000000000000D+00  0.0000000000000D+00
   224  2.2300000000000D+00  0.0000000000000D+00  0.0000000000000D+00
   225  2.2400000000000D+00  0.0000000000000D+00  0.0000000000000D+00
   226  2.2500000000000D+00  0.0000000000000D+00  0.0000000000000D+00
   227  2.2600000000000D+00  0.0000000000000D+00  0.0000000000000D+00
   228  2.2700000000000D+00  0.0000000000000D+00  0.0000000000000D+00
   229  2.2800000000000D+00  0.0000000000000D+00  0.0000000000000D+00
   230  2.2900000000000D+00  0.0000000000000D+00  0.0000000000000D+00
   231  2.3000000000000D+00  0.0000000000000D+00  0.0000000000000D+00
   232  2.3100000000000D+00  0.0000000000000D+00  0.0000000000000D+00
   233  2.3200000000000D+00  0.0000000000000D+00  0.0000000000000D+00
   234  2.3300000000000D+00  0.0000000000000D+00  0.0000000000000D+00
   235  2.3400000000000D+00  0.0000000000000D+00  0.0000000000000D+00
   236  2.3500000000000D+00  0.0000000000000D+00  0.0000000000000D+00
   237  2.3600000000000D+00  0.0000000000000D+00  0.0000000000000D+00
   238  2.3700000000000D+00  0.0000000000000D+00  0.0000000000000D+00
   239  2.3800000000000D+00  0.0000000000000D+00  0.0000000000000D+00
   240  2.3900000000000D+00  0.0000000000000D+00  0.0000000000000D+00
   241  2.4000000000000D+00  0.0000000000000D+00  0.0000000000000D+00
   242  2.4100000000000D+00  0.0000000000000D+00  0.0000000000000D+00
   243  2.4200000000000D+00  0.0000000000000D+00  0.0000000000000D+00
   244  2.4300000000000D+00  0.0000000000000D+00  0.0000000000000D+00
   245  2.4400000000000D+00  0.0000000000000D+00  0.0000000000000D+00
   246  2.4500000000000D+00  0.0000000000000D+00  0.0000000000000D+00
   247  2.4600000000000D+00  0.0000000000000D+00  0.0000000000000D+00
   248  2.4700000000000D+00  0.0000000000000D+00  0.0000000000000D+00
   249  2.4800000000000D+00  0.0000000000000D+00  0.0000000000000D+00
   250  2.4900000000000D+00  0.0000000000000D+00  0.0000000000000D+00
   251  2.5000000000000D+00  0.0000000000000D+00  0.0000000000000D+00
   252  2.5100000000000D+00  0.0000000000000D+00  0.0000000000000D+00
   253  2.5200000000000D+00  0.0000000000000D+00  0.0000000000000D+00
   254  2.5300000000000D+00  0.0000000000000D+00  0.0000000000000D+00
   255  2.5400000000000D+00  0.0000000000000D+00  0.0000000000000D+00
   256  2.5500000000000D+00  0.0000000000000D+00  0.0000000000000D+00
   257  2.5600000000000D+00  0.0000000000000D+00  0.0000000000000D+00
   258  2.5700000000000D+00  0.0000000000000D+00  0.0000000000000D+00
   259  2.5800000000000D+00  0.0000000000000D+00  0.0000000000000D+00
   260  2.5900000000000D+00  0.0000000000000D+00  0.0000000000000D+00
   261  2.6000000000000D+00  0.0000000000000D+00  0.0000000000000D+00
   262  2.6100000000000D+00  0.0000000000000D+00  0.0000000000000D+00
   263  2.6200000000000D+00  0.0000000000000D+00  0.0000000000000D+00
   264  2.6300000000000D+00  0.0000000000000D+00  0.0000000000000D+00
   265  2.6400000000000D+00  0.0000000000000D+00  0.0000000000000D+00
   266  2.6500000000000D+00  0.0000000000000D+00  0.0000000000000D+00
   267  2.6600000000000D+00  0.0000000000000D+00  0.0000000000000D+00
   268  2.6700000000000D+00  0.0000000000000D+00  0.0000000000000D+00
   269  2.6800000000000D+00  0.0000000000000D+00  0.0000000000000D+00
   270  2.6900000000000D+00  0.0000000000000D+00  0.0000000000000D+00
   271  2.7000000000000D+00  0.0000000000000D+00  0.0000000000000D+00
   272  2.7100000000000D+00  0.0000000000000D+00  0.0000000000000D+00
   273  2.7200000000000D+00  0.0000000000000D+00  0.0000000000000D+00
   274  2.7300000000000D+00  0.0000000000000D+00  0.0000000000000D+00
   275  2.7400000000000D+00  0.0000000000000D+00  0.0000000000000D+00
   276  2.7500000000000D+00  0.0000000000000D+00  0.0000000000000D+00
   277  2.7600000000000D+00  0.0000000000000D+00  0.0000000000000D+00
   278  2.7700000000000D+00  0.0000000000000D+00  0.0000000000000D+00
   279  2.7800000000000D+00  0.0000000000000D+00  0.0000000000000D+00
   280  2.7900000000000D+00  0.0000000000000D+00  0.0000000000000D+00
   281  2.8000000000000D+00  0.0000000000000D+00  0.0000000000000D+00
   282  2.8100000000000D+00  0.0000000000000D+00  0.0000000000000D+00
   283  2.8200000000000D+00  0.0000000000000D+00  0.0000000000000D+00
   284  2.8300000000000D+00  0.0000000000000D+00  0.0000000000000D+00
   285  2.8400000000000D+00  0.0000000000000D+00  0.0000000000000D+00
   286  2.8500000000000D+00  0.0000000000000D+00  0.0000000000000D+00
   287  2.8600000000000D+00  0.0000000000000D+00  0.0000000000000D+00
   288  2.8700000000000D+00  0.0000000000000D+00  0.0000000000000D+00
   289  2.8800000000000D+00  0.0000000000000D+00  0.0000000000000D+00
   290  2.8900000000000D+00  0.0000000000000D+00  0.0000000000000D+00
   291  2.9000000000000D+00  0.0000000000000D+00  0.0000000000000D+00
   292  2.9100000000000D+00  0.0000000000000D+00  0.0000000000000D+00
   293  2.9200000000000D+00  0.0000000000000D+00  0.0000000000000D+00
   294  2.9300000000000D+00  0.0000000000000D+00  0.0000000000000D+00
   295  2.9400000000000D+00  0.0000000000000D+00  0.0000000000000D+00
   296  2.9500000000000D+00  0.0000000000000D+00  0.0000000000000D+00
   297  2.9600000000000D+00  0.0000000000000D+00  0.0000000000000D+00
   298  2.9700000000000D+00  0.0000000000000D+00  0.0000000000000D+00
   299  2.9800000000000D+00  0.0000000000000D+00  0.0000000000000D+00
   300  2.9900000000000D+00  0.0000000000000D+00  0.0000000000000D+00
   301  3.0000000000000D+00  0.0000000000000D+00  0.0000000000000D+00
   302  3.0100000000000D+00  0.0000000000000D+00  0.0000000000000D+00
   303  3.0200000000000D+00  0.0000000000000D+00  0.0000000000000D+00
   304  3.0300000000000D+00  0.0000000000000D+00  0.0000000000000D+00
   305  3.0400000000000D+00  0.0000000000000D+00  0.0000000000000D+00
   306  3.0500000000000D+00  0.0000000000000D+00  0.0000000000000D+00
   307  3.0600000000000D+00  0.0000000000000D+00  0.0000000000000D+00
   308  3.0700000000000D+00  0.0000000000000D+00  0.0000000000000D+00
   309  3.0800000000000D+00  0.0000000000000D+00  0.0000000000000D+00
   310  3.0900000000000D+00  0.0000000000000D+00  0.0000000000000D+00
   311  3.1000000000000D+00  0.0000000000000D+00  0.0000000000000D+00
   312  3.1100000000000D+00  0.0000000000000D+00  0.0000000000000D+00
   313  3.1200000000000D+00  0.0000000000000D+00  0.0000000000000D+00
   314  3.1300000000000D+00  0.0000000000000D+00  0.0000000000000D+00
   315  3.1400000000000D+00  0.0000000000000D+00  0.0000000000000D+00
   316  3.1500000000000D+00  0.0000000000000D+00  0.0000000000000D+00
   317  3.1600000000000D+00  0.0000000000000D+00  0.0000000000000D+00
   318  3.1700000000000D+00  0.0000000000000D+00  0.0000000000000D+00
   319  3.1800000000000D+00  0.0000000000000D+00  0.0000000000000D+00
   320  3.1900000000000D+00  0.0000000000000D+00  0.0000000000000D+00
   321  3.2000000000000D+00  0.0000000000000D+00  0.0000000000000D+00
   322  3.2100000000000D+00  0.0000000000000D+00  0.0000000000000D+00
   323  3.2200000000000D+00  0.0000000000000D+00  0.0000000000000D+00
   324  3.2300000000000D+00  0.0000000000000D+00  0.0000000000000D+00
   325  3.2400000000000D+00  0.0000000000000D+00  0.0000000000000D+00
   326  3.2500000000000D+00  0.0000000000000D+00  0.0000000000000D+00
   327  3.2600000000000D+00  0.0000000000000D+00  0.0000000000000D+00
   328  3.2700000000000D+00  0.0000000000000D+00  0.0000000000000D+00
   329  3.2800000000000D+00  0.0000000000000D+00  0.0000000000000D+00
   330  3.2900000000000D+00  0.0000000000000D+00  0.0000000000000D+00
   331  3.3000000000000D+00  0.0000000000000D+00  0.0000000000000D+00
   332  3.3100000000000D+00  0.0000000000000D+00  0.0000000000000D+00
   333  3.3200000000000D+00  0.0000000000000D+00  0.0000000000000D+00
   334  3.3300000000000D+00  0.0000000000000D+00  0.0000000000000D+00
   335  3.3400000000000D+00  0.0000000000000D+00  0.0000000000000D+00
   336  3.3500000000000D+00  0.0000000000000D+00  0.0000000000000D+00
   337  3.3600000000000D+00  0.0000000000000D+00  0.0000000000000D+00
   338  3.3700000000000D+00  0.0000000000000D+00  0.0000000000000D+00
   339  3.3800000000000D+00  0.0000000000000D+00  0.0000000000000D+00
   340  3.3900000000000D+00  0.0000000000000D+00  0.0000000000000D+00
   341  3.4000000000000D+00  0.0000000000000D+00  0.0000000000000D+00
   342  3.4100000000000D+00  0.0000000000000D+00  0.0000000000000D+00
   343  3.4200000000000D+00  0.0000000000000D+00  0.0000000000000D+00
   344  3.4300000000000D+00  0.0000000000000D+00  0.0000000000000D+00
   345  3.4400000000000D+00  0.0000000000000D+00  0.0000000000000D+00
   346  3.4500000000000D+00  0.0000000000000D+00  0.0000000000000D+00
   347  3.4600000000000D+00  0.0000000000000D+00  0.0000000000000D+00
   348  3.4700000000000D+00  0.0000000000000D+00  0.0000000000000D+00
   349  3.4800000000000D+00  0.0000000000000D+00  0.0000000000000D+00
   350  3.4900000000000D+00  0.0000000000000D+00  0.0000000000000D+00
   351  3.5000000000000D+00  0.0000000000000D+00  0.0000000000000D+00
   352  3.5100000000000D+00  0.0000000000000D+00  0.0000000000000D+00
   353  3.5200000000000D+00  0.0000000000000D+00  0.0000000000000D+00
   354  3.5300000000000D+00  0.0000000000000D+00  0.0000000000000D+00
   355  3.5400000000000D+00  0.0000000000000D+00  0.0000000000000D+00
   356  3.5500000000000D+00  0.0000000000000D+00  0.0000000000000D+00
   357  3.5600000000000D+00  0.0000000000000D+00  0.0000000000000D+00
   358  3.5700000000000D+00  0.0000000000000D+00  0.0000000000000D+00
   359  3.5800000000000D+00  0.0000000000000D+00  0.0000000000000D+00
   360  3.5900000000000D+00  0.0000000000000D+00  0.0000000000000D+00
   361  3.6000000000000D+00  0.0000000000000D+00  0.0000000000000D+00
   362  3.6100000000000D+00  0.0000000000000D+00  0.0000000000000D+00
   363  3.6200000000000D+00  0.0000000000000D+00  0.0000000000000D+00
   364  3.6300000000000D+00  0.0000000000000D+00  0.0000000000000D+00
   365  3.6400000000000D+00  0.0000000000000D+00  0.0000000000000D+00
   366  3.6500000000000D+00  0.0000000000000D+00  0.0000000000000D+00
   367  3.6600000000000D+00  0.0000000000000D+00  0.0000000000000D+00
   368  3.6700000000000D+00  0.0000000000000D+00  0.0000000000000D+00
   369  3.6800000000000D+00  0.0000000000000D+00  0.0000000000000D+00
   370  3.6900000000000D+00  0.0000000000000D+00  0.0000000000000D+00
   371  3.7000000000000D+00  0.0000000000000D+00  0.0000000000000D+00
   372  3.7100000000000D+00  0.0000000000000D+00  0.0000000000000D+00
   373  3.7200000000000D+00  0.0000000000000D+00  0.0000000000000D+00
   374  3.7300000000000D+00  0.0000000000000D+00  0.0000000000000D+00
   375  3.7400000000000D+00  0.0000000000000D+00  0.0000000000000D+00
   376  3.7500000000000D+00  0.0000000000000D+00  0.0000000000000D+00
   377  3.7600000000000D+00  0.0000000000000D+00  0.0000000000000D+00
   378  3.7700000000000D+00  0.0000000000000D+00  0.0000000000000D+00
   379  3.7800000000000D+00  0.0000000000000D+00  0.0000000000000D+00
   380  3.7900000000000D+00  0.0000000000000D+00  0.0000000000000D+00
   381  3.8000000000000D+00  0.0000000000000D+00  0.0000000000000D+00
   382  3.8100000000000D+00  0.0000000000000D+00  0.0000000000000D+00
   383  3.8200000000000D+00  0.0000000000000D+00  0.0000000000000D+00
   384  3.8300000000000D+00  0.0000000000000D+00  0.0000000000000D+00
   385  3.8400000000000D+00  0.0000000000000D+00  0.0000000000000D+00
   386  3.8500000000000D+00  0.0000000000000D+00  0.0000000000000D+00
   387  3.8600000000000D+00  0.0000000000000D+00  0.0000000000000D+00
   388  3.8700000000000D+00  0.0000000000000D+00  0.0000000000000D+00
   389  3.8800000000000D+00  0.0000000000000D+00  0.0000000000000D+00
   390  3.8900000000000D+00  0.0000000000000D+00  0.0000000000000D+00
   391  3.9000000000000D+00  0.0000000000000D+00  0.0000000000000D+00
   392  3.9100000000000D+00  0.0000000000000D+00  0.0000000000000D+00
   393  3.9200000000000D+00  0.0000000000000D+00  0.0000000000000D+00
   394  3.9300000000000D+00  0.0000000000000D+00  0.0000000000000D+00
   395  3.9400000000000D+00  0.0000000000000D+00  0.0000000000000D+00
   396  3.9500000000000D+00  0.0000000000000D+00  0.0000000000000D+00
   397  3.9600000000000D+00  0.0000000000000D+00  0.0000000000000D+00
   398  3.9700000000000D+00  0.0000000000000D+00  0.0000000000000D+00
   399  3.9800000000000D+00  0.0000000000000D+00  0.0000000000000D+00
   400  3.9900000000000D+00  0.0000000000000D+00  0.0000000000000D+00
   401  4.0000000000000D+00  0.0000000000000D+00  0.0000000000000D+00
   402  4.0100000000000D+00  0.0000000000000D+00  0.0000000000000D+00
   403  4.0200000000000D+00  0.0000000000000D+00  0.0000000000000D+00
   404  4.0300000000000D+00  0.0000000000000D+00  0.0000000000000D+00
   405  4.0400000000000D+00  0.0000000000000D+00  0.0000000000000D+00
   406  4.0500000000000D+00  0.0000000000000D+00  0.0000000000000D+00
   407  4.0600000000000D+00  0.0000000000000D+00  0.0000000000000D+00
   408  4.0700000000000D+00  0.0000000000000D+00  0.0000000000000D+00
   409  4.0800000000000D+00  0.0000000000000D+00  0.0000000000000D+00
   410  4.0900000000000D+00  0.0000000000000D+00  0.0000000000000D+00
   411  4.1000000000000D+00  0.0000000000000D+00  0.0000000000000D+00
   412  4.1100000000000D+00  0.0000000000000D+00  0.0000000000000D+00
   413  4.1200000000000D+00  0.0000000000000D+00  0.0000000000000D+00
   414  4.1300000000000D+00  0.0000000000000D+00  0.0000000000000D+00
   415  4.1400000000000D+00  0.0000000000000D+00  0.0000000000000D+00
   416  4.1500000000000D+00  0.0000000000000D+00  0.0000000000000D+00
   417  4.1600000000000D+00  0.0000000000000D+00  0.0000000000000D+00
   418  4.1700000000000D+00  0.0000000000000D+00  0.0000000000000D+00
   419  4.1800000000000D+00  0.0000000000000D+00  0.0000000000000D+00
   420  4.1900000000000D+00  0.0000000000000D+00  0.0000000000000D+00
   421  4.2000000000000D+00  0.0000000000000D+00  0.0000000000000D+00
   422  4.2100000000000D+00  0.0000000000000D+00  0.0000000000000D+00