Kr    ONCVPSP-3.3.0  r_core=   1.75984   1.50704   1.80233
     36.0000      8.0000      220408    zatom,zion,pspd
     8       2   2     4   600     0    pspcod,pspxc,lmax,lloc,mmax,r2well
  5.99000000  0.00000000  0.00000000    rchrg fchrg qchrg
     2     2     2     0     0    nproj
     1     1           extension_switch
   0                         8.4593039593880D+00  8.4682583556935D-01
     1  0.0000000000000D+00 -9.1523011391814D-11  3.9232561643843D-10
     2  1.0000000000000D-02  3.9014424280789D-02 -1.6800821111372D-02
     3  2.0000000000000D-02  7.7989389240369D-02 -3.3511476937971D-02
     4  3.0000000000000D-02  1.1688561294019D-01 -5.0042667158408D-02
     5  4.0000000000000D-02  1.5566416609954D-01 -6.6306811709583D-02
     6  5.0000000000000D-02  1.9428664317908D-01 -8.2218886845120D-02
     7  6.0000000000000D-02  2.3271532723558D-01 -9.7697232589340D-02
     8  7.0000000000000D-02  2.7091334657977D-01 -1.1266432251641D-01
     9  8.0000000000000D-02  3.0884482136100D-01 -1.2704748717666D-01
    10  9.0000000000000D-02  3.4647499831518D-01 -1.4077958297528D-01
    11  1.0000000000000D-01  3.8377037204493D-01 -1.5379959887844D-01
    12  1.1000000000000D-01  4.2069879135266D-01 -1.6605319397198D-01
    13  1.2000000000000D-01  4.5722954931586D-01 -1.7749315962316D-01
    14  1.3000000000000D-01  4.9333345597808D-01 -1.8807980078798D-01
    15  1.4000000000000D-01  5.2898289272714D-01 -1.9778123185933D-01
    16  1.5000000000000D-01  5.6415184764144D-01 -2.0657358335453D-01
    17  1.6000000000000D-01  5.9881593130478D-01 -2.1444111668772D-01
    18  1.7000000000000D-01  6.3295237281622D-01 -2.2137624525223D-01
    19  1.8000000000000D-01  6.6653999595334D-01 -2.2737946104197D-01
    20  1.9000000000000D-01  6.9955917568127D-01 -2.3245916705826D-01
    21  2.0000000000000D-01  7.3199177543457D-01 -2.3663141677033D-01
    22  2.1000000000000D-01  7.6382106583088D-01 -2.3991956291244D-01
    23  2.2000000000000D-01  7.9503162570337D-01 -2.4235381889920D-01
    24  2.3000000000000D-01  8.2560922655929D-01 -2.4397073711275D-01
    25  2.4000000000000D-01  8.5554070178324D-01 -2.4481260925046D-01
    26  2.5000000000000D-01  8.8481380210344D-01 -2.4492679481143D-01
    27  2.6000000000000D-01  9.1341703902466D-01 -2.4436498463369D-01
    28  2.7000000000000D-01  9.4133951810169D-01 -2.4318240716400D-01
    29  2.8000000000000D-01  9.6857076407870D-01 -2.4143698583956D-01
    30  2.9000000000000D-01  9.9510054005215D-01 -2.3918845657864D-01
    31  3.0000000000000D-01  1.0209186629263D+00 -2.3649745490799D-01
    32  3.1000000000000D-01  1.0460148175180D+00 -2.3342458269307D-01
    33  3.2000000000000D-01  1.0703783717324D+00 -2.3002946477725D-01
    34  3.3000000000000D-01  1.0939981952711D+00 -2.2636980607373D-01
    35  3.4000000000000D-01  1.1168624843468D+00 -2.2250045978607D-01
    36  3.5000000000000D-01  1.1389585948688D+00 -2.1847251745699D-01
    37  3.6000000000000D-01  1.1602728865227D+00 -2.1433243145954D-01
    38  3.7000000000000D-01  1.1807905801050D+00 -2.1012118034925D-01
    39  3.8000000000000D-01  1.2004956303807D+00 -2.0587348719162D-01
    40  3.9000000000000D-01  1.2193706166160D+00 -2.0161710056722D-01
    41  4.0000000000000D-01  1.2373966527984D+00 -1.9737214744131D-01
    42  4.1000000000000D-01  1.2545533193881D+00 -1.9315056646752D-01
    43  4.2000000000000D-01  1.2708186182610D+00 -1.8895562958402D-01
    44  4.3000000000000D-01  1.2861689522915D+00 -1.8478155895849D-01
    45  4.4000000000000D-01  1.3005791307975D+00 -1.8061324545412D-01
    46  4.5000000000000D-01  1.3140224018259D+00 -1.7642607382960D-01
    47  4.6000000000000D-01  1.3264705119925D+00 -1.7218585886032D-01
    48  4.7000000000000D-01  1.3378937943230D+00 -1.6784889548532D-01
    49  4.8000000000000D-01  1.3482612842544D+00 -1.6336212495429D-01
    50  4.9000000000000D-01  1.3575408636656D+00 -1.5866341778293D-01
    51  5.0000000000000D-01  1.3656994325133D+00 -1.5368197313210D-01
    52  5.1000000000000D-01  1.3727031073473D+00 -1.4833883302083D-01
    53  5.2000000000000D-01  1.3785174456853D+00 -1.4254750857437D-01
    54  5.3000000000000D-01  1.3831076949328D+00 -1.3621471430874D-01
    55  5.4000000000000D-01  1.3864390642469D+00 -1.2924120527669D-01
    56  5.5000000000000D-01  1.3884770174676D+00 -1.2152271075484D-01
    57  5.6000000000000D-01  1.3891875849732D+00 -1.1295095705196D-01
    58  5.7000000000000D-01  1.3885376920704D+00 -1.0341477097740D-01
    59  5.8000000000000D-01  1.3864955012956D+00 -9.2801254530051D-02
    60  5.9000000000000D-01  1.3830307657970D+00 -8.0997020474938D-02
    61  6.0000000000000D-01  1.3781151907761D+00 -6.7889477660809D-02
    62  6.1000000000000D-01  1.3717227998083D+00 -5.3368154223479D-02
    63  6.2000000000000D-01  1.3638303027252D+00 -3.7326046210362D-02
    64  6.3000000000000D-01  1.3544174616367D+00 -1.9660978668675D-02
    65  6.4000000000000D-01  1.3434674515948D+00 -2.7696586538559D-04
    66  6.5000000000000D-01  1.3309672123583D+00  2.0914442943633D-02
    67  6.6000000000000D-01  1.3169077877073D+00  4.3992845897747D-02
    68  6.7000000000000D-01  1.3012846487771D+00  6.9027712761521D-02
    69  6.8000000000000D-01  1.2840979979413D+00  9.6077164547051D-02
    70  6.9000000000000D-01  1.2653530498619D+00  1.2518682179636D-01
    71  7.0000000000000D-01  1.2450602864479D+00  1.5638873438041D-01
    72  7.1000000000000D-01  1.2232356826251D+00  1.8970040512502D-01
    73  7.2000000000000D-01  1.1999009000031D+00  2.2512391890364D-01
    74  7.3000000000000D-01  1.1750834457518D+00  2.6264518804099D-01
    75  7.4000000000000D-01  1.1488167942434D+00  3.0223332395986D-01
    76  7.5000000000000D-01  1.1211404692968D+00  3.4384014398122D-01
    77  7.6000000000000D-01  1.0921000851603D+00  3.8739982106169D-01
    78  7.7000000000000D-01  1.0617473446953D+00  4.3282868303806D-01
    79  7.8000000000000D-01  1.0301399935658D+00  4.8002516664918D-01
    80  7.9000000000000D-01  9.9734172960211D-01  5.2886993023779D-01
    81  8.0000000000000D-01  9.6342206688340D-01  5.7922612760746D-01
    82  8.1000000000000D-01  9.2845615446665D-01  6.3093984403878D-01
    83  8.2000000000000D-01  8.9252455008785D-01  6.8384069396520D-01
    84  8.3000000000000D-01  8.5571294955484D-01  7.3774257828870D-01
    85  8.4000000000000D-01  8.1811187295018D-01  7.9244459779133D-01
    86  8.5000000000000D-01  7.7981630915564D-01  8.4773211758695D-01
    87  8.6000000000000D-01  7.4092532059558D-01  9.0337797607123D-01
    88  8.7000000000000D-01  7.0154161047188D-01  9.5914383038357D-01
    89  8.8000000000000D-01  6.6177105512283D-01  1.0147816290046D+00
    90  8.9000000000000D-01  6.2172220448030D-01  1.0700352007928D+00
    91  9.0000000000000D-01  5.8150575391955D-01  1.1246419485262D+00
    92  9.1000000000000D-01  5.4123399109095D-01  1.1783346338741D+00
    93  9.2000000000000D-01  5.0102022158986D-01  1.2308432396893D+00
    94  9.3000000000000D-01  4.6097817755694D-01  1.2818968945968D+00
    95  9.4000000000000D-01  4.2122141350387D-01  1.3312258440696D+00
    96  9.5000000000000D-01  3.8186269382612D-01  1.3785634515349D+00
    97  9.6000000000000D-01  3.4301337659386D-01  1.4236482125523D+00
    98  9.7000000000000D-01  3.0478279830188D-01  1.4662257647571D+00
    99  9.8000000000000D-01  2.6727766430903D-01  1.5060508760688D+00
   100  9.9000000000000D-01  2.3060144970481D-01  1.5428893936394D+00
   101  1.0000000000000D+00  1.9485381530723D-01  1.5765201361420D+00
   102  1.0100000000000D+00  1.6013004342156D-01  1.6067367122964D+00
   103  1.0200000000000D+00  1.2652049786888D-01  1.6333492489917D+00
   104  1.0300000000000D+00  9.4110112636676D-02  1.6561860129784D+00
   105  1.0400000000000D+00  6.2977913305669D-02  1.6750949108709D+00
   106  1.0500000000000D+00  3.3196575163646D-02  1.6899448531479D+00
   107  1.0600000000000D+00  4.8320216520527D-03  1.7006269688657D+00
   108  1.0700000000000D+00 -2.2056933516238D-02  1.7070556589941D+00
   109  1.0800000000000D+00 -4.7418897582679D-02  1.7091694776562D+00
   110  1.0900000000000D+00 -7.1210160677840D-02  1.7069318319096D+00
   111  1.1000000000000D+00 -9.3394906254656D-02  1.7003314923556D+00
   112  1.1100000000000D+00 -1.1394536817433D-01  1.6893829082699D+00
   113  1.1200000000000D+00 -1.3284193308172D-01  1.6741263228215D+00
   114  1.1300000000000D+00 -1.5007318713749D-01  1.6546276856066D+00
   115  1.1400000000000D+00 -1.6563590665232D-01  1.6309783615720D+00
   116  1.1500000000000D+00 -1.7953499259013D-01  1.6032946370284D+00
   117  1.1600000000000D+00 -1.9178334940192D-01  1.5717170253595D+00
   118  1.1700000000000D+00 -2.0240170913494D-01  1.5364093768883D+00
   119  1.1800000000000D+00 -2.1141840223211D-01  1.4975577991670D+00
   120  1.1900000000000D+00 -2.1886907676608D-01  1.4553693952152D+00
   121  1.2000000000000D+00 -2.2479636843957D-01  1.4100708294772D+00
   122  1.2100000000000D+00 -2.2924952402901D-01  1.3619067325776D+00
   123  1.2200000000000D+00 -2.3228398132036D-01  1.3111379573604D+00
   124  1.2300000000000D+00 -2.3396090891798D-01  1.2580396999548D+00
   125  1.2400000000000D+00 -2.3434670975988D-01  1.2028995013040D+00
   126  1.2500000000000D+00 -2.3351249237779D-01  1.1460151453376D+00
   127  1.2600000000000D+00 -2.3153351412860D-01  1.0876924706808D+00
   128  1.2700000000000D+00 -2.2848860104560D-01  1.0282431143193D+00
   129  1.2800000000000D+00 -2.2445954897320D-01  9.6798220564111D-01
   130  1.2900000000000D+00 -2.1953051079346D-01  9.0722602983656D-01
   131  1.3000000000000D+00 -2.1378737477091D-01  8.4628968031014D-01
   132  1.3100000000000D+00 -2.0731713891263D-01  7.8548471921699D-01
   133  1.3200000000000D+00 -2.0020728640476D-01  7.2511686586652D-01
   134  1.3300000000000D+00 -1.9254516703412D-01  6.6548373191645D-01
   135  1.3400000000000D+00 -1.8441738938539D-01  6.0687262182809D-01
   136  1.3500000000000D+00 -1.7590922870389D-01  5.4955841738513D-01
   137  1.3600000000000D+00 -1.6710405471855D-01  4.9380156251229D-01
   138  1.3700000000000D+00 -1.5808278391080D-01  4.3984616546707D-01
   139  1.3800000000000D+00 -1.4892336035864D-01  3.8791823390166D-01
   140  1.3900000000000D+00 -1.3970026847424D-01  3.3822405494763D-01
   141  1.4000000000000D+00 -1.3048408179077D-01  2.9094873592810D-01
   142  1.4100000000000D+00 -1.2134105016227D-01  2.4625491386191D-01
   143  1.4200000000000D+00 -1.1233272837404D-01  2.0428164458261D-01
   144  1.4300000000000D+00 -1.0351564872182D-01  1.6514348042997D-01
   145  1.4400000000000D+00 -9.4941038472159D-02  1.2892973878566D-01
   146  1.4500000000000D+00 -8.6654584958313D-02  9.5703971209048D-02
   147  1.4600000000000D+00 -7.8696247090071D-02  6.5503625234959D-02
   148  1.4700000000000D+00 -7.1100119972473D-02  3.8339934676063D-02
   149  1.4800000000000D+00 -6.3894331121373D-02  1.4197911293090D-02
   150  1.4900000000000D+00 -5.7101038964092D-02 -6.9631554172381D-03
   151  1.5000000000000D+00 -5.0736379233053D-02 -2.5209568028434D-02
   152  1.5100000000000D+00 -4.4810464970691D-02 -4.0632903454566D-02
   153  1.5200000000000D+00 -3.9327853767482D-02 -5.3346942342236D-02
   154  1.5300000000000D+00 -3.4288004892233D-02 -6.3484857502586D-02
   155  1.5400000000000D+00 -2.9685912122233D-02 -7.1195674340196D-02
   156  1.5500000000000D+00 -2.5512588326266D-02 -7.6641699127027D-02
   157  1.5600000000000D+00 -2.1755327945961D-02 -7.9997423879198D-02
   158  1.5700000000000D+00 -1.8398120307022D-02 -8.1447558258104D-02
   159  1.5800000000000D+00 -1.5422071034406D-02 -8.1185058379106D-02
   160  1.5900000000000D+00 -1.2805834793522D-02 -7.9409141328224D-02
   161  1.6000000000000D+00 -1.0526063069684D-02 -7.6323242743712D-02
   162  1.6100000000000D+00 -8.5578596218325D-03 -7.2132956449819D-02
   163  1.6200000000000D+00 -6.8752400354765D-03 -6.7043967657642D-02
   164  1.6300000000000D+00 -5.4515902083111D-03 -6.1260001969920D-02
   165  1.6400000000000D+00 -4.2601195799531D-03 -5.4980807107568D-02
   166  1.6500000000000D+00 -3.2743036158726D-03 -4.8400190079502D-02
   167  1.6600000000000D+00 -2.4683122972828D-03 -4.1704122885592D-02
   168  1.6700000000000D+00 -1.8174186806704D-03 -3.5068941199093D-02
   169  1.6800000000000D+00 -1.2983853417852D-03 -2.8659644796752D-02
   170  1.6900000000000D+00 -8.8982248993578D-04 -2.2628325239652D-02
   171  1.7000000000000D+00 -5.7247918711629D-04 -1.7114327853021D-02
   172  1.7100000000000D+00 -3.2959341310440D-04 -1.2240544850721D-02
   173  1.7200000000000D+00 -1.4785925993176D-04 -8.0920985398108D-03
   174  1.7300000000000D+00 -1.6498964799759D-05 -4.7577383931930D-03
   175  1.7400000000000D+00  7.8192991447268D-05 -2.4087463796736D-03
   176  1.7500000000000D+00  1.4238468001347D-04 -1.0864748987168D-03
   177  1.7600000000000D+00  1.4993103031629D-04 -4.5797715036937D-04
   178  1.7700000000000D+00  8.3328586100365D-05 -1.4127668046613D-04
   179  1.7800000000000D+00  5.9006823329080D-06 -6.8967470667443D-06
   180  1.7900000000000D+00 -1.7273285121658D-05  1.6010749883367D-05
   181  1.8000000000000D+00 -4.6431354081304D-06  3.3646933832059D-06
   182  1.8100000000000D+00  3.6307419417035D-06 -4.9116161025308D-06
   183  1.8200000000000D+00  1.8934805783998D-06 -2.3835770079527D-06
   184  1.8300000000000D+00 -3.4865825983826D-07  1.0775375489929D-06
   185  1.8400000000000D+00 -3.0243131290201D-07  9.3467195010470D-07
   186  1.8500000000000D+00  0.0000000000000D+00  0.0000000000000D+00
   187  1.8600000000000D+00  0.0000000000000D+00  0.0000000000000D+00
   188  1.8700000000000D+00  0.0000000000000D+00  0.0000000000000D+00
   189  1.8800000000000D+00  0.0000000000000D+00  0.0000000000000D+00
   190  1.8900000000000D+00  0.0000000000000D+00  0.0000000000000D+00
   191  1.9000000000000D+00  0.0000000000000D+00  0.0000000000000D+00
   192  1.9100000000000D+00  0.0000000000000D+00  0.0000000000000D+00
   193  1.9200000000000D+00  0.0000000000000D+00  0.0000000000000D+00
   194  1.9300000000000D+00  0.0000000000000D+00  0.0000000000000D+00
   195  1.9400000000000D+00  0.0000000000000D+00  0.0000000000000D+00
   196  1.9500000000000D+00  0.0000000000000D+00  0.0000000000000D+00
   197  1.9600000000000D+00  0.0000000000000D+00  0.0000000000000D+00
   198  1.9700000000000D+00  0.0000000000000D+00  0.0000000000000D+00
   199  1.9800000000000D+00  0.0000000000000D+00  0.0000000000000D+00
   200  1.9900000000000D+00  0.0000000000000D+00  0.0000000000000D+00
   201  2.0000000000000D+00  0.0000000000000D+00  0.0000000000000D+00
   202  2.0100000000000D+00  0.0000000000000D+00  0.0000000000000D+00
   203  2.0200000000000D+00  0.0000000000000D+00  0.0000000000000D+00
   204  2.0300000000000D+00  0.0000000000000D+00  0.0000000000000D+00
   205  2.0400000000000D+00  0.0000000000000D+00  0.0000000000000D+00
   206  2.0500000000000D+00  0.0000000000000D+00  0.0000000000000D+00
   207  2.0600000000000D+00  0.0000000000000D+00  0.0000000000000D+00
   208  2.0700000000000D+00  0.0000000000000D+00  0.0000000000000D+00
   209  2.0800000000000D+00  0.0000000000000D+00  0.0000000000000D+00
   210  2.0900000000000D+00  0.0000000000000D+00  0.0000000000000D+00
   211  2.1000000000000D+00  0.0000000000000D+00  0.0000000000000D+00
   212  2.1100000000000D+00  0.0000000000000D+00  0.0000000000000D+00
   213  2.1200000000000D+00  0.0000000000000D+00  0.0000000000000D+00
   214  2.1300000000000D+00  0.0000000000000D+00  0.0000000000000D+00
   215  2.1400000000000D+00  0.0000000000000D+00  0.0000000000000D+00
   216  2.1500000000000D+00  0.0000000000000D+00  0.0000000000000D+00
   217  2.1600000000000D+00  0.0000000000000D+00  0.0000000000000D+00
   218  2.1700000000000D+00  0.0000000000000D+00  0.0000000000000D+00
   219  2.1800000000000D+00  0.0000000000000D+00  0.0000000000000D+00
   220  2.1900000000000D+00  0.0000000000000D+00  0.0000000000000D+00
   221  2.2000000000000D+00  0.0000000000000D+00  0.0000000000000D+00
   222  2.2100000000000D+00  0.0000000000000D+00  0.0000000000000D+00
   223  2.2200000000000D+00  0.0000000000000D+00  0.0000000000000D+00
   224  2.2300000000000D+00  0.0000000000000D+00  0.0000000000000D+00
   225  2.2400000000000D+00  0.0000000000000D+00  0.0000000000000D+00
   226  2.2500000000000D+00  0.0000000000000D+00  0.0000000000000D+00
   227  2.2600000000000D+00  0.0000000000000D+00  0.0000000000000D+00
   228  2.2700000000000D+00  0.0000000000000D+00  0.0000000000000D+00
   229  2.2800000000000D+00  0.0000000000000D+00  0.0000000000000D+00
   230  2.2900000000000D+00  0.0000000000000D+00  0.0000000000000D+00
   231  2.3000000000000D+00  0.0000000000000D+00  0.0000000000000D+00
   232  2.3100000000000D+00  0.0000000000000D+00  0.0000000000000D+00
   233  2.3200000000000D+00  0.0000000000000D+00  0.0000000000000D+00
   234  2.3300000000000D+00  0.0000000000000D+00  0.0000000000000D+00
   235  2.3400000000000D+00  0.0000000000000D+00  0.0000000000000D+00
   236  2.3500000000000D+00  0.0000000000000D+00  0.0000000000000D+00
   237  2.3600000000000D+00  0.0000000000000D+00  0.0000000000000D+00
   238  2.3700000000000D+00  0.0000000000000D+00  0.0000000000000D+00
   239  2.3800000000000D+00  0.0000000000000D+00  0.0000000000000D+00
   240  2.3900000000000D+00  0.0000000000000D+00  0.0000000000000D+00
   241  2.4000000000000D+00  0.0000000000000D+00  0.0000000000000D+00
   242  2.4100000000000D+00  0.0000000000000D+00  0.0000000000000D+00
   243  2.4200000000000D+00  0.0000000000000D+00  0.0000000000000D+00
   244  2.4300000000000D+00  0.0000000000000D+00  0.0000000000000D+00
   245  2.4400000000000D+00  0.0000000000000D+00  0.0000000000000D+00
   246  2.4500000000000D+00  0.0000000000000D+00  0.0000000000000D+00
   247  2.4600000000000D+00  0.0000000000000D+00  0.0000000000000D+00
   248  2.4700000000000D+00  0.0000000000000D+00  0.0000000000000D+00
   249  2.4800000000000D+00  0.0000000000000D+00  0.0000000000000D+00
   250  2.4900000000000D+00  0.0000000000000D+00  0.0000000000000D+00
   251  2.5000000000000D+00  0.0000000000000D+00  0.0000000000000D+00
   252  2.5100000000000D+00  0.0000000000000D+00  0.0000000000000D+00
   253  2.5200000000000D+00  0.0000000000000D+00  0.0000000000000D+00
   254  2.5300000000000D+00  0.0000000000000D+00  0.0000000000000D+00
   255  2.5400000000000D+00  0.0000000000000D+00  0.0000000000000D+00
   256  2.5500000000000D+00  0.0000000000000D+00  0.0000000000000D+00
   257  2.5600000000000D+00  0.0000000000000D+00  0.0000000000000D+00
   258  2.5700000000000D+00  0.0000000000000D+00  0.0000000000000D+00
   259  2.5800000000000D+00  0.0000000000000D+00  0.0000000000000D+00
   260  2.5900000000000D+00  0.0000000000000D+00  0.0000000000000D+00
   261  2.6000000000000D+00  0.0000000000000D+00  0.0000000000000D+00
   262  2.6100000000000D+00  0.0000000000000D+00  0.0000000000000D+00
   263  2.6200000000000D+00  0.0000000000000D+00  0.0000000000000D+00
   264  2.6300000000000D+00  0.0000000000000D+00  0.0000000000000D+00
   265  2.6400000000000D+00  0.0000000000000D+00  0.0000000000000D+00
   266  2.6500000000000D+00  0.0000000000000D+00  0.0000000000000D+00
   267  2.6600000000000D+00  0.0000000000000D+00  0.0000000000000D+00
   268  2.6700000000000D+00  0.0000000000000D+00  0.0000000000000D+00
   269  2.6800000000000D+00  0.0000000000000D+00  0.0000000000000D+00
   270  2.6900000000000D+00  0.0000000000000D+00  0.0000000000000D+00
   271  2.7000000000000D+00  0.0000000000000D+00  0.0000000000000D+00
   272  2.7100000000000D+00  0.0000000000000D+00  0.0000000000000D+00
   273  2.7200000000000D+00  0.0000000000000D+00  0.0000000000000D+00
   274  2.7300000000000D+00  0.0000000000000D+00  0.0000000000000D+00
   275  2.7400000000000D+00  0.0000000000000D+00  0.0000000000000D+00
   276  2.7500000000000D+00  0.0000000000000D+00  0.0000000000000D+00
   277  2.7600000000000D+00  0.0000000000000D+00  0.0000000000000D+00
   278  2.7700000000000D+00  0.0000000000000D+00  0.0000000000000D+00
   279  2.7800000000000D+00  0.0000000000000D+00  0.0000000000000D+00
   280  2.7900000000000D+00  0.0000000000000D+00  0.0000000000000D+00
   281  2.8000000000000D+00  0.0000000000000D+00  0.0000000000000D+00
   282  2.8100000000000D+00  0.0000000000000D+00  0.0000000000000D+00
   283  2.8200000000000D+00  0.0000000000000D+00  0.0000000000000D+00
   284  2.8300000000000D+00  0.0000000000000D+00  0.0000000000000D+00
   285  2.8400000000000D+00  0.0000000000000D+00  0.0000000000000D+00
   286  2.8500000000000D+00  0.0000000000000D+00  0.0000000000000D+00
   287  2.8600000000000D+00  0.0000000000000D+00  0.0000000000000D+00
   288  2.8700000000000D+00  0.0000000000000D+00  0.0000000000000D+00
   289  2.8800000000000D+00  0.0000000000000D+00  0.0000000000000D+00
   290  2.8900000000000D+00  0.0000000000000D+00  0.0000000000000D+00
   291  2.9000000000000D+00  0.0000000000000D+00  0.0000000000000D+00
   292  2.9100000000000D+00  0.0000000000000D+00  0.0000000000000D+00
   293  2.9200000000000D+00  0.0000000000000D+00  0.0000000000000D+00
   294  2.9300000000000D+00  0.0000000000000D+00  0.0000000000000D+00
   295  2.9400000000000D+00  0.0000000000000D+00  0.0000000000000D+00
   296  2.9500000000000D+00  0.0000000000000D+00  0.0000000000000D+00
   297  2.9600000000000D+00  0.0000000000000D+00  0.0000000000000D+00
   298  2.9700000000000D+00  0.0000000000000D+00  0.0000000000000D+00
   299  2.9800000000000D+00  0.0000000000000D+00  0.0000000000000D+00
   300  2.9900000000000D+00  0.0000000000000D+00  0.0000000000000D+00
   301  3.0000000000000D+00  0.0000000000000D+00  0.0000000000000D+00
   302  3.0100000000000D+00  0.0000000000000D+00  0.0000000000000D+00
   303  3.0200000000000D+00  0.0000000000000D+00  0.0000000000000D+00
   304  3.0300000000000D+00  0.0000000000000D+00  0.0000000000000D+00
   305  3.0400000000000D+00  0.0000000000000D+00  0.0000000000000D+00
   306  3.0500000000000D+00  0.0000000000000D+00  0.0000000000000D+00
   307  3.0600000000000D+00  0.0000000000000D+00  0.0000000000000D+00
   308  3.0700000000000D+00  0.0000000000000D+00  0.0000000000000D+00
   309  3.0800000000000D+00  0.0000000000000D+00  0.0000000000000D+00
   310  3.0900000000000D+00  0.0000000000000D+00  0.0000000000000D+00
   311  3.1000000000000D+00  0.0000000000000D+00  0.0000000000000D+00
   312  3.1100000000000D+00  0.0000000000000D+00  0.0000000000000D+00
   313  3.1200000000000D+00  0.0000000000000D+00  0.0000000000000D+00
   314  3.1300000000000D+00  0.0000000000000D+00  0.0000000000000D+00
   315  3.1400000000000D+00  0.0000000000000D+00  0.0000000000000D+00
   316  3.1500000000000D+00  0.0000000000000D+00  0.0000000000000D+00
   317  3.1600000000000D+00  0.0000000000000D+00  0.0000000000000D+00
   318  3.1700000000000D+00  0.0000000000000D+00  0.0000000000000D+00
   319  3.1800000000000D+00  0.0000000000000D+00  0.0000000000000D+00
   320  3.1900000000000D+00  0.0000000000000D+00  0.0000000000000D+00
   321  3.2000000000000D+00  0.0000000000000D+00  0.0000000000000D+00
   322  3.2100000000000D+00  0.0000000000000D+00  0.0000000000000D+00
   323  3.2200000000000D+00  0.0000000000000D+00  0.0000000000000D+00
   324  3.2300000000000D+00  0.0000000000000D+00  0.0000000000000D+00
   325  3.2400000000000D+00  0.0000000000000D+00  0.0000000000000D+00
   326  3.2500000000000D+00  0.0000000000000D+00  0.0000000000000D+00
   327  3.2600000000000D+00  0.0000000000000D+00  0.0000000000000D+00
   328  3.2700000000000D+00  0.0000000000000D+00  0.0000000000000D+00
   329  3.2800000000000D+00  0.0000000000000D+00  0.0000000000000D+00
   330  3.2900000000000D+00  0.0000000000000D+00  0.0000000000000D+00
   331  3.3000000000000D+00  0.0000000000000D+00  0.0000000000000D+00
   332  3.3100000000000D+00  0.0000000000000D+00  0.0000000000000D+00
   333  3.3200000000000D+00  0.0000000000000D+00  0.0000000000000D+00
   334  3.3300000000000D+00  0.0000000000000D+00  0.0000000000000D+00
   335  3.3400000000000D+00  0.0000000000000D+00  0.0000000000000D+00
   336  3.3500000000000D+00  0.0000000000000D+00  0.0000000000000D+00
   337  3.3600000000000D+00  0.0000000000000D+00  0.0000000000000D+00
   338  3.3700000000000D+00  0.0000000000000D+00  0.0000000000000D+00
   339  3.3800000000000D+00  0.0000000000000D+00  0.0000000000000D+00
   340  3.3900000000000D+00  0.0000000000000D+00  0.0000000000000D+00
   341  3.4000000000000D+00  0.0000000000000D+00  0.0000000000000D+00
   342  3.4100000000000D+00  0.0000000000000D+00  0.0000000000000D+00
   343  3.4200000000000D+00  0.0000000000000D+00  0.0000000000000D+00
   344  3.4300000000000D+00  0.0000000000000D+00  0.0000000000000D+00
   345  3.4400000000000D+00  0.0000000000000D+00  0.0000000000000D+00
   346  3.4500000000000D+00  0.0000000000000D+00  0.0000000000000D+00
   347  3.4600000000000D+00  0.0000000000000D+00  0.0000000000000D+00
   348  3.4700000000000D+00  0.0000000000000D+00  0.0000000000000D+00
   349  3.4800000000000D+00  0.0000000000000D+00  0.0000000000000D+00
   350  3.4900000000000D+00  0.0000000000000D+00  0.0000000000000D+00
   351  3.5000000000000D+00  0.0000000000000D+00  0.0000000000000D+00
   352  3.5100000000000D+00  0.0000000000000D+00  0.0000000000000D+00
   353  3.5200000000000D+00  0.0000000000000D+00  0.0000000000000D+00
   354  3.5300000000000D+00  0.0000000000000D+00  0.0000000000000D+00
   355  3.5400000000000D+00  0.0000000000000D+00  0.0000000000000D+00
   356  3.5500000000000D+00  0.0000000000000D+00  0.0000000000000D+00
   357  3.5600000000000D+00  0.0000000000000D+00  0.0000000000000D+00
   358  3.5700000000000D+00  0.0000000000000D+00  0.0000000000000D+00
   359  3.5800000000000D+00  0.0000000000000D+00  0.0000000000000D+00
   360  3.5900000000000D+00  0.0000000000000D+00  0.0000000000000D+00
   361  3.6000000000000D+00  0.0000000000000D+00  0.0000000000000D+00
   362  3.6100000000000D+00  0.0000000000000D+00  0.0000000000000D+00
   363  3.6200000000000D+00  0.0000000000000D+00  0.0000000000000D+00
   364  3.6300000000000D+00  0.0000000000000D+00  0.0000000000000D+00
   365  3.6400000000000D+00  0.0000000000000D+00  0.0000000000000D+00
   366  3.6500000000000D+00  0.0000000000000D+00  0.0000000000000D+00
   367  3.6600000000000D+00  0.0000000000000D+00  0.0000000000000D+00
   368  3.6700000000000D+00  0.0000000000000D+00  0.0000000000000D+00
   369  3.6800000000000D+00  0.0000000000000D+00  0.0000000000000D+00
   370  3.6900000000000D+00  0.0000000000000D+00  0.0000000000000D+00
   371  3.7000000000000D+00  0.0000000000000D+00  0.0000000000000D+00
   372  3.7100000000000D+00  0.0000000000000D+00  0.0000000000000D+00
   373  3.7200000000000D+00  0.0000000000000D+00  0.0000000000000D+00
   374  3.7300000000000D+00  0.0000000000000D+00  0.0000000000000D+00
   375  3.7400000000000D+00  0.0000000000000D+00  0.0000000000000D+00
   376  3.7500000000000D+00  0.0000000000000D+00  0.0000000000000D+00
   377  3.7600000000000D+00  0.0000000000000D+00  0.0000000000000D+00
   378  3.7700000000000D+00  0.0000000000000D+00  0.0000000000000D+00
   379  3.7800000000000D+00  0.0000000000000D+00  0.0000000000000D+00
   380  3.7900000000000D+00  0.0000000000000D+00  0.0000000000000D+00
   381  3.8000000000000D+00  0.0000000000000D+00  0.0000000000000D+00
   382  3.8100000000000D+00  0.0000000000000D+00  0.0000000000000D+00
   383  3.8200000000000D+00  0.0000000000000D+00  0.0000000000000D+00
   384  3.8300000000000D+00  0.0000000000000D+00  0.0000000000000D+00
   385  3.8400000000000D+00  0.0000000000000D+00  0.0000000000000D+00
   386  3.8500000000000D+00  0.0000000000000D+00  0.0000000000000D+00
   387  3.8600000000000D+00  0.0000000000000D+00  0.0000000000000D+00
   388  3.8700000000000D+00  0.0000000000000D+00  0.0000000000000D+00
   389  3.8800000000000D+00  0.0000000000000D+00  0.0000000000000D+00
   390  3.8900000000000D+00  0.0000000000000D+00  0.0000000000000D+00
   391  3.9000000000000D+00  0.0000000000000D+00  0.0000000000000D+00
   392  3.9100000000000D+00  0.0000000000000D+00  0.0000000000000D+00
   393  3.9200000000000D+00  0.0000000000000D+00  0.0000000000000D+00
   394  3.9300000000000D+00  0.0000000000000D+00  0.0000000000000D+00
   395  3.9400000000000D+00  0.0000000000000D+00  0.0000000000000D+00
   396  3.9500000000000D+00  0.0000000000000D+00  0.0000000000000D+00
   397  3.9600000000000D+00  0.0000000000000D+00  0.0000000000000D+00
   398  3.9700000000000D+00  0.0000000000000D+00  0.0000000000000D+00
   399  3.9800000000000D+00  0.0000000000000D+00  0.0000000000000D+00
   400  3.9900000000000D+00  0.0000000000000D+00  0.0000000000000D+00
   401  4.0000000000000D+00  0.0000000000000D+00  0.0000000000000D+00
   402  4.0100000000000D+00  0.0000000000000D+00  0.0000000000000D+00
   403  4.0200000000000D+00  0.0000000000000D+00  0.0000000000000D+00
   404  4.0300000000000D+00  0.0000000000000D+00  0.0000000000000D+00
   405  4.0400000000000D+00  0.0000000000000D+00  0.0000000000000D+00
   406  4.0500000000000D+00  0.0000000000000D+00  0.0000000000000D+00
   407  4.0600000000000D+00  0.0000000000000D+00  0.0000000000000D+00
   408  4.0700000000000D+00  0.0000000000000D+00  0.0000000000000D+00
   409  4.0800000000000D+00  0.0000000000000D+00  0.0000000000000D+00
   410  4.0900000000000D+00  0.0000000000000D+00  0.0000000000000D+00
   411  4.1000000000000D+00  0.0000000000000D+00  0.0000000000000D+00
   412  4.1100000000000D+00  0.0000000000000D+00  0.0000000000000D+00
   413  4.1200000000000D+00  0.0000000000000D+00  0.0000000000000D+00
   414  4.1300000000000D+00  0.0000000000000D+00  0.0000000000000D+00
   415  4.1400000000000D+00  0.0000000000000D+00  0.0000000000000D+00
   416  4.1500000000000D+00  0.0000000000000D+00  0.0000000000000D+00
   417  4.1600000000000D+00  0.0000000000000D+00  0.0000000000000D+00
   418  4.1700000000000D+00  0.0000000000000D+00  0.0000000000000D+00
   419  4.1800000000000D+00  0.0000000000000D+00  0.0000000000000D+00
   420  4.1900000000000D+00  0.0000000000000D+00  0.0000000000000D+00
   421  4.2000000000000D+00  0.0000000000000D+00  0.0000000000000D+00
   422  4.2100000000000D+00  0.0000000000000D+00  0.0000000000000D+00