B     ONCVPSP-3.3.0  r_core=   1.20849   1.20849
      5.0000      3.0000      220408    zatom,zion,pspd
     8       2   1     4   600     0    pspcod,pspxc,lmax,lloc,mmax,r2well
  5.99000000  0.00000000  0.00000000    rchrg fchrg qchrg
     2     2     0     0     0    nproj
     1     1           extension_switch
   0                         8.4377383440697D+00  1.2454584120524D+00
     1  0.0000000000000D+00  2.4349403104917D-08 -4.1844623745180D-08
     2  1.0000000000000D-02  4.5684494386795D-02  1.6549395940094D-02
     3  2.0000000000000D-02  9.1847383975088D-02  3.2165131778637D-02
     4  3.0000000000000D-02  1.3895321395234D-01  4.5937428205198D-02
     5  4.0000000000000D-02  1.8743913505063D-01  5.7003743222771D-02
     6  5.0000000000000D-02  2.3770196383728D-01  6.4571091154737D-02
     7  6.0000000000000D-02  2.9008613420257D-01  6.7936832707352D-02
     8  7.0000000000000D-02  3.4487280779460D-01  6.6507476821267D-02
     9  8.0000000000000D-02  4.0227038680241D-01  5.9815076890212D-02
    10  9.0000000000000D-02  4.6240664300532D-01  4.7530854588377D-02
    11  1.0000000000000D-01  5.2532264299744D-01  2.9475742984687D-02
    12  1.1000000000000D-01  5.9096861166203D-01  5.6276056254139D-03
    13  1.2000000000000D-01  6.5920183509068D-01 -2.3875041506658D-02
    14  1.3000000000000D-01  7.2978666106145D-01 -5.8732904250063D-02
    15  1.4000000000000D-01  8.0239661079756D-01 -9.8489403595094D-02
    16  1.5000000000000D-01  8.7661857094194D-01 -1.4253773404445D-01
    17  1.6000000000000D-01  9.5195899043065D-01 -1.9013135699908D-01
    18  1.7000000000000D-01  1.0278519641474D+00 -2.4039772571641D-01
    19  1.8000000000000D-01  1.1036690447813D+00 -2.9235496898403D-01
    20  1.9000000000000D-01  1.1787305870349D+00 -3.4493119674153D-01
    21  2.0000000000000D-01  1.2523183950156D+00 -3.9698603380489D-01
    22  2.1000000000000D-01  1.3236894149926D+00 -4.4733393880291D-01
    23  2.2000000000000D-01  1.3920901923196D+00 -4.9476882546144D-01
    24  2.3000000000000D-01  1.4567717937015D+00 -5.3808947332368D-01
    25  2.4000000000000D-01  1.5170048845121D+00 -5.7612519552359D-01
    26  2.5000000000000D-01  1.5720946457956D+00 -6.0776122277223D-01
    27  2.6000000000000D-01  1.6213952170417D+00 -6.3196326548282D-01
    28  2.7000000000000D-01  1.6643233587903D+00 -6.4780072993068D-01
    29  2.8000000000000D-01  1.7003710434710D+00 -6.5446808926836D-01
    30  2.9000000000000D-01  1.7291167033269D+00 -6.5130394561934D-01
    31  3.0000000000000D-01  1.7502348904213D+00 -6.3780736466245D-01
    32  3.1000000000000D-01  1.7635041350560D+00 -6.1365111819836D-01
    33  3.2000000000000D-01  1.7688128248225D+00 -5.7869153207936D-01
    34  3.3000000000000D-01  1.7661629662338D+00 -5.3297470533737D-01
    35  3.4000000000000D-01  1.7556717336494D+00 -4.7673893998114D-01
    36  3.5000000000000D-01  1.7375707551435D+00 -4.1041329825789D-01
    37  3.6000000000000D-01  1.7122031311523D+00 -3.3461228360749D-01
    38  3.7000000000000D-01  1.6800182282479D+00 -2.5012672146281D-01
    39  3.8000000000000D-01  1.6415643362467D+00 -1.5791099481623D-01
    40  3.9000000000000D-01  1.5974793211524D+00 -5.9066865470211D-02
    41  4.0000000000000D-01  1.5484794482201D+00  4.5175816464523D-02
    42  4.1000000000000D-01  1.4953465878645D+00  1.5348114645021D-01
    43  4.2000000000000D-01  1.4389140514017D+00  2.6443151580801D-01
    44  4.3000000000000D-01  1.3800513330096D+00  3.7655380128334D-01
    45  4.4000000000000D-01  1.3196480581804D+00  4.8834687612189D-01
    46  4.5000000000000D-01  1.2585974568162D+00  5.9830989463321D-01
    47  4.6000000000000D-01  1.1977796905940D+00  7.0497078301736D-01
    48  4.7000000000000D-01  1.1380453690332D+00  8.0691436152696D-01
    49  4.8000000000000D-01  1.0801995867114D+00  9.0280952704575D-01
    50  4.9000000000000D-01  1.0249868053104D+00  9.9143494085019D-01
    51  5.0000000000000D-01  9.7307688876562D-01  1.0717026934304D+00
    52  5.1000000000000D-01  9.2505257804857D-01  1.1426794562665D+00
    53  5.2000000000000D-01  8.8139866441084D-01  1.2036046786948D+00
    54  5.3000000000000D-01  8.4249308686308D-01  1.2539054454330D+00
    55  5.4000000000000D-01  8.0860014180249D-01  1.2932076759929D+00
    56  5.5000000000000D-01  7.7986595087998D-01  1.3213434196433D+00
    57  5.6000000000000D-01  7.5631628824617D-01  1.3383540773470D+00
    58  5.7000000000000D-01  7.3785682095412D-01  1.3444894639394D+00
    59  5.8000000000000D-01  7.2427576788358D-01  1.3402027073937D+00
    60  5.9000000000000D-01  7.1524893343482D-01  1.3261410667297D+00
    61  6.0000000000000D-01  7.1034702423546D-01  1.3031328328310D+00
    62  6.1000000000000D-01  7.0904511024537D-01  1.2721705570813D+00
    63  6.2000000000000D-01  7.1073404785430D-01  1.2343909280038D+00
    64  6.3000000000000D-01  7.1473364190200D-01  1.1910516858836D+00
    65  6.4000000000000D-01  7.2030728741646D-01  1.1435060272538D+00
    66  6.5000000000000D-01  7.2667780083701D-01  1.0931750041536D+00
    67  6.6000000000000D-01  7.3304412502553D-01  1.0415184664117D+00
    68  6.7000000000000D-01  7.3859857338552D-01  9.9000512732374D-01
    69  6.8000000000000D-01  7.4254426600533D-01  9.4008235380105D-01
    70  6.9000000000000D-01  7.4411240530636D-01  8.9314629070182D-01
    71  7.0000000000000D-01  7.4257904040427D-01  8.5051292531095D-01
    72  7.1000000000000D-01  7.3728097822136D-01  8.1339068189854D-01
    73  7.2000000000000D-01  7.2763051504215D-01  7.8285510847666D-01
    74  7.3000000000000D-01  7.1312868476403D-01  7.5982617813413D-01
    75  7.4000000000000D-01  6.9337674866674D-01  7.4504867723742D-01
    76  7.5000000000000D-01  6.6808568589969D-01  7.3907609269702D-01
    77  7.6000000000000D-01  6.3708348322786D-01  7.4225834187499D-01
    78  7.7000000000000D-01  6.0032006625452D-01  7.5473361265017D-01
    79  7.8000000000000D-01  5.5786976106968D-01  7.7642449988645D-01
    80  7.9000000000000D-01  5.0993122498462D-01  8.0703853819713D-01
    81  8.0000000000000D-01  4.5682483561833D-01  8.4607314308273D-01
    82  8.1000000000000D-01  3.9898757895624D-01  8.9282488349111D-01
    83  8.2000000000000D-01  3.3696552763932D-01  9.4640292114939D-01
    84  8.3000000000000D-01  2.7140404975634D-01  1.0057463672127D+00
    85  8.4000000000000D-01  2.0303593479419D-01  1.0696452266158D+00
    86  8.5000000000000D-01  1.3266766620365D-01  1.1367645266318D+00
    87  8.6000000000000D-01  6.1164108385090D-02  1.2056711600603D+00
    88  8.7000000000000D-01 -1.0568091001690D-02  1.2748629165358D+00
    89  8.8000000000000D-01 -8.1598055331179D-02  1.3427991288678D+00
    90  8.9000000000000D-01 -1.5098884117044D-01  1.4079323260516D+00
    91  9.0000000000000D-01 -2.1781584583665D-01  1.4687402614022D+00
    92  9.1000000000000D-01 -2.8118509140267D-01  1.5237576736505D+00
    93  9.2000000000000D-01 -3.4025101710785D-01  1.5716071410795D+00
    94  9.3000000000000D-01 -3.9423342044165D-01  1.6110284038606D+00
    95  9.4000000000000D-01 -4.4243320268751D-01  1.6409055573383D+00
    96  9.5000000000000D-01 -4.8424659746187D-01  1.6602915591324D+00
    97  9.6000000000000D-01 -5.1917758949856D-01  1.6684295433730D+00
    98  9.7000000000000D-01 -5.4684826612633D-01  1.6647704970664D+00
    99  9.8000000000000D-01 -5.6700688437202D-01  1.6489869244004D+00
   100  9.9000000000000D-01 -5.7953348115238D-01  1.6209822025955D+00
   101  1.0000000000000D+00 -5.8444290253855D-01  1.5808954175856D+00
   102  1.0100000000000D+00 -5.8188517900889D-01  1.5291015566228D+00
   103  1.0200000000000D+00 -5.7214322644056D-01  1.4662070269651D+00
   104  1.0300000000000D+00 -5.5562790605995D-01  1.3930405629132D+00
   105  1.0400000000000D+00 -5.3287052724541D-01  1.3106396716594D+00
   106  1.0500000000000D+00 -5.0451293160994D-01  1.2202328632668D+00
   107  1.0600000000000D+00 -4.7129534251257D-01  1.1232179895740D+00
   108  1.0700000000000D+00 -4.3404221001102D-01  1.0211370965110D+00
   109  1.0800000000000D+00 -3.9364632289243D-01  9.1564826656860D-01
   110  1.0900000000000D+00 -3.5105149053747D-01  8.0849498215670D-01
   111  1.1000000000000D+00 -3.0723413224948D-01  7.0147360102497D-01
   112  1.1100000000000D+00 -2.6318412989417D-01  5.9639956640262D-01
   113  1.1200000000000D+00 -2.1988531649605D-01  4.9507300348177D-01
   114  1.1300000000000D+00 -1.7829598060681D-01  3.9924436610404D-01
   115  1.1400000000000D+00 -1.3932976879663D-01  3.1058080164575D-01
   116  1.1500000000000D+00 -1.0383735977902D-01  2.3063388642826D-01
   117  1.1600000000000D+00 -7.2589267220531D-02  1.6080935506761D-01
   118  1.1700000000000D+00 -4.6269794941080D-02  1.0236126285537D-01
   119  1.1800000000000D+00 -2.5414672689090D-02  5.6258214484665D-02
   120  1.1900000000000D+00 -1.0425640990002D-02  2.3220657674848D-02
   121  1.2000000000000D+00 -2.0367555200233D-03  4.7983392056049D-03
   122  1.2100000000000D+00  6.4851252433349D-04 -1.1509051137390D-03
   123  1.2200000000000D+00  2.4571651754724D-04 -4.8386845411317D-04
   124  1.2300000000000D+00 -1.5871541106344D-04  3.1719681205648D-04
   125  1.2400000000000D+00  1.7010955687617D-05 -3.3401209481211D-05
   126  1.2500000000000D+00  1.4801847785055D-05 -2.9241227076643D-05
   127  1.2600000000000D+00 -1.4809120377814D-06  2.4097610761551D-06
   128  1.2700000000000D+00  0.0000000000000D+00  0.0000000000000D+00
   129  1.2800000000000D+00  0.0000000000000D+00  0.0000000000000D+00
   130  1.2900000000000D+00  0.0000000000000D+00  0.0000000000000D+00
   131  1.3000000000000D+00  0.0000000000000D+00  0.0000000000000D+00
   132  1.3100000000000D+00  0.0000000000000D+00  0.0000000000000D+00
   133  1.3200000000000D+00  0.0000000000000D+00  0.0000000000000D+00
   134  1.3300000000000D+00  0.0000000000000D+00  0.0000000000000D+00
   135  1.3400000000000D+00  0.0000000000000D+00  0.0000000000000D+00
   136  1.3500000000000D+00  0.0000000000000D+00  0.0000000000000D+00
   137  1.3600000000000D+00  0.0000000000000D+00  0.0000000000000D+00
   138  1.3700000000000D+00  0.0000000000000D+00  0.0000000000000D+00
   139  1.3800000000000D+00  0.0000000000000D+00  0.0000000000000D+00
   140  1.3900000000000D+00  0.0000000000000D+00  0.0000000000000D+00
   141  1.4000000000000D+00  0.0000000000000D+00  0.0000000000000D+00
   142  1.4100000000000D+00  0.0000000000000D+00  0.0000000000000D+00
   143  1.4200000000000D+00  0.0000000000000D+00  0.0000000000000D+00
   144  1.4300000000000D+00  0.0000000000000D+00  0.0000000000000D+00
   145  1.4400000000000D+00  0.0000000000000D+00  0.0000000000000D+00
   146  1.4500000000000D+00  0.0000000000000D+00  0.0000000000000D+00
   147  1.4600000000000D+00  0.0000000000000D+00  0.0000000000000D+00
   148  1.4700000000000D+00  0.0000000000000D+00  0.0000000000000D+00
   149  1.4800000000000D+00  0.0000000000000D+00  0.0000000000000D+00
   150  1.4900000000000D+00  0.0000000000000D+00  0.0000000000000D+00
   151  1.5000000000000D+00  0.0000000000000D+00  0.0000000000000D+00
   152  1.5100000000000D+00  0.0000000000000D+00  0.0000000000000D+00
   153  1.5200000000000D+00  0.0000000000000D+00  0.0000000000000D+00
   154  1.5300000000000D+00  0.0000000000000D+00  0.0000000000000D+00
   155  1.5400000000000D+00  0.0000000000000D+00  0.0000000000000D+00
   156  1.5500000000000D+00  0.0000000000000D+00  0.0000000000000D+00
   157  1.5600000000000D+00  0.0000000000000D+00  0.0000000000000D+00
   158  1.5700000000000D+00  0.0000000000000D+00  0.0000000000000D+00
   159  1.5800000000000D+00  0.0000000000000D+00  0.0000000000000D+00
   160  1.5900000000000D+00  0.0000000000000D+00  0.0000000000000D+00
   161  1.6000000000000D+00  0.0000000000000D+00  0.0000000000000D+00
   162  1.6100000000000D+00  0.0000000000000D+00  0.0000000000000D+00
   163  1.6200000000000D+00  0.0000000000000D+00  0.0000000000000D+00
   164  1.6300000000000D+00  0.0000000000000D+00  0.0000000000000D+00
   165  1.6400000000000D+00  0.0000000000000D+00  0.0000000000000D+00
   166  1.6500000000000D+00  0.0000000000000D+00  0.0000000000000D+00
   167  1.6600000000000D+00  0.0000000000000D+00  0.0000000000000D+00
   168  1.6700000000000D+00  0.0000000000000D+00  0.0000000000000D+00
   169  1.6800000000000D+00  0.0000000000000D+00  0.0000000000000D+00
   170  1.6900000000000D+00  0.0000000000000D+00  0.0000000000000D+00
   171  1.7000000000000D+00  0.0000000000000D+00  0.0000000000000D+00
   172  1.7100000000000D+00  0.0000000000000D+00  0.0000000000000D+00
   173  1.7200000000000D+00  0.0000000000000D+00  0.0000000000000D+00
   174  1.7300000000000D+00  0.0000000000000D+00  0.0000000000000D+00
   175  1.7400000000000D+00  0.0000000000000D+00  0.0000000000000D+00
   176  1.7500000000000D+00  0.0000000000000D+00  0.0000000000000D+00
   177  1.7600000000000D+00  0.0000000000000D+00  0.0000000000000D+00
   178  1.7700000000000D+00  0.0000000000000D+00  0.0000000000000D+00
   179  1.7800000000000D+00  0.0000000000000D+00  0.0000000000000D+00
   180  1.7900000000000D+00  0.0000000000000D+00  0.0000000000000D+00
   181  1.8000000000000D+00  0.0000000000000D+00  0.0000000000000D+00
   182  1.8100000000000D+00  0.0000000000000D+00  0.0000000000000D+00
   183  1.8200000000000D+00  0.0000000000000D+00  0.0000000000000D+00
   184  1.8300000000000D+00  0.0000000000000D+00  0.0000000000000D+00
   185  1.8400000000000D+00  0.0000000000000D+00  0.0000000000000D+00
   186  1.8500000000000D+00  0.0000000000000D+00  0.0000000000000D+00
   187  1.8600000000000D+00  0.0000000000000D+00  0.0000000000000D+00
   188  1.8700000000000D+00  0.0000000000000D+00  0.0000000000000D+00
   189  1.8800000000000D+00  0.0000000000000D+00  0.0000000000000D+00
   190  1.8900000000000D+00  0.0000000000000D+00  0.0000000000000D+00
   191  1.9000000000000D+00  0.0000000000000D+00  0.0000000000000D+00
   192  1.9100000000000D+00  0.0000000000000D+00  0.0000000000000D+00
   193  1.9200000000000D+00  0.0000000000000D+00  0.0000000000000D+00
   194  1.9300000000000D+00  0.0000000000000D+00  0.0000000000000D+00
   195  1.9400000000000D+00  0.0000000000000D+00  0.0000000000000D+00
   196  1.9500000000000D+00  0.0000000000000D+00  0.0000000000000D+00
   197  1.9600000000000D+00  0.0000000000000D+00  0.0000000000000D+00
   198  1.9700000000000D+00  0.0000000000000D+00  0.0000000000000D+00
   199  1.9800000000000D+00  0.0000000000000D+00  0.0000000000000D+00
   200  1.9900000000000D+00  0.0000000000000D+00  0.0000000000000D+00
   201  2.0000000000000D+00  0.0000000000000D+00  0.0000000000000D+00
   202  2.0100000000000D+00  0.0000000000000D+00  0.0000000000000D+00
   203  2.0200000000000D+00  0.0000000000000D+00  0.0000000000000D+00
   204  2.0300000000000D+00  0.0000000000000D+00  0.0000000000000D+00
   205  2.0400000000000D+00  0.0000000000000D+00  0.0000000000000D+00
   206  2.0500000000000D+00  0.0000000000000D+00  0.0000000000000D+00
   207  2.0600000000000D+00  0.0000000000000D+00  0.0000000000000D+00
   208  2.0700000000000D+00  0.0000000000000D+00  0.0000000000000D+00
   209  2.0800000000000D+00  0.0000000000000D+00  0.0000000000000D+00
   210  2.0900000000000D+00  0.0000000000000D+00  0.0000000000000D+00
   211  2.1000000000000D+00  0.0000000000000D+00  0.0000000000000D+00
   212  2.1100000000000D+00  0.0000000000000D+00  0.0000000000000D+00
   213  2.1200000000000D+00  0.0000000000000D+00  0.0000000000000D+00
   214  2.1300000000000D+00  0.0000000000000D+00  0.0000000000000D+00
   215  2.1400000000000D+00  0.0000000000000D+00  0.0000000000000D+00
   216  2.1500000000000D+00  0.0000000000000D+00  0.0000000000000D+00
   217  2.1600000000000D+00  0.0000000000000D+00  0.0000000000000D+00
   218  2.1700000000000D+00  0.0000000000000D+00  0.0000000000000D+00
   219  2.1800000000000D+00  0.0000000000000D+00  0.0000000000000D+00
   220  2.1900000000000D+00  0.0000000000000D+00  0.0000000000000D+00
   221  2.2000000000000D+00  0.0000000000000D+00  0.0000000000000D+00
   222  2.2100000000000D+00  0.0000000000000D+00  0.0000000000000D+00
   223  2.2200000000000D+00  0.0000000000000D+00  0.0000000000000D+00
   224  2.2300000000000D+00  0.0000000000000D+00  0.0000000000000D+00
   225  2.2400000000000D+00  0.0000000000000D+00  0.0000000000000D+00
   226  2.2500000000000D+00  0.0000000000000D+00  0.0000000000000D+00
   227  2.2600000000000D+00  0.0000000000000D+00  0.0000000000000D+00
   228  2.2700000000000D+00  0.0000000000000D+00  0.0000000000000D+00
   229  2.2800000000000D+00  0.0000000000000D+00  0.0000000000000D+00
   230  2.2900000000000D+00  0.0000000000000D+00  0.0000000000000D+00
   231  2.3000000000000D+00  0.0000000000000D+00  0.0000000000000D+00
   232  2.3100000000000D+00  0.0000000000000D+00  0.0000000000000D+00
   233  2.3200000000000D+00  0.0000000000000D+00  0.0000000000000D+00
   234  2.3300000000000D+00  0.0000000000000D+00  0.0000000000000D+00
   235  2.3400000000000D+00  0.0000000000000D+00  0.0000000000000D+00
   236  2.3500000000000D+00  0.0000000000000D+00  0.0000000000000D+00
   237  2.3600000000000D+00  0.0000000000000D+00  0.0000000000000D+00
   238  2.3700000000000D+00  0.0000000000000D+00  0.0000000000000D+00
   239  2.3800000000000D+00  0.0000000000000D+00  0.0000000000000D+00
   240  2.3900000000000D+00  0.0000000000000D+00  0.0000000000000D+00
   241  2.4000000000000D+00  0.0000000000000D+00  0.0000000000000D+00
   242  2.4100000000000D+00  0.0000000000000D+00  0.0000000000000D+00
   243  2.4200000000000D+00  0.0000000000000D+00  0.0000000000000D+00
   244  2.4300000000000D+00  0.0000000000000D+00  0.0000000000000D+00
   245  2.4400000000000D+00  0.0000000000000D+00  0.0000000000000D+00
   246  2.4500000000000D+00  0.0000000000000D+00  0.0000000000000D+00
   247  2.4600000000000D+00  0.0000000000000D+00  0.0000000000000D+00
   248  2.4700000000000D+00  0.0000000000000D+00  0.0000000000000D+00
   249  2.4800000000000D+00  0.0000000000000D+00  0.0000000000000D+00
   250  2.4900000000000D+00  0.0000000000000D+00  0.0000000000000D+00
   251  2.5000000000000D+00  0.0000000000000D+00  0.0000000000000D+00
   252  2.5100000000000D+00  0.0000000000000D+00  0.0000000000000D+00
   253  2.5200000000000D+00  0.0000000000000D+00  0.0000000000000D+00
   254  2.5300000000000D+00  0.0000000000000D+00  0.0000000000000D+00
   255  2.5400000000000D+00  0.0000000000000D+00  0.0000000000000D+00
   256  2.5500000000000D+00  0.0000000000000D+00  0.0000000000000D+00
   257  2.5600000000000D+00  0.0000000000000D+00  0.0000000000000D+00
   258  2.5700000000000D+00  0.0000000000000D+00  0.0000000000000D+00
   259  2.5800000000000D+00  0.0000000000000D+00  0.0000000000000D+00
   260  2.5900000000000D+00  0.0000000000000D+00  0.0000000000000D+00
   261  2.6000000000000D+00  0.0000000000000D+00  0.0000000000000D+00
   262  2.6100000000000D+00  0.0000000000000D+00  0.0000000000000D+00
   263  2.6200000000000D+00  0.0000000000000D+00  0.0000000000000D+00
   264  2.6300000000000D+00  0.0000000000000D+00  0.0000000000000D+00
   265  2.6400000000000D+00  0.0000000000000D+00  0.0000000000000D+00
   266  2.6500000000000D+00  0.0000000000000D+00  0.0000000000000D+00
   267  2.6600000000000D+00  0.0000000000000D+00  0.0000000000000D+00
   268  2.6700000000000D+00  0.0000000000000D+00  0.0000000000000D+00
   269  2.6800000000000D+00  0.0000000000000D+00  0.0000000000000D+00
   270  2.6900000000000D+00  0.0000000000000D+00  0.0000000000000D+00
   271  2.7000000000000D+00  0.0000000000000D+00  0.0000000000000D+00
   272  2.7100000000000D+00  0.0000000000000D+00  0.0000000000000D+00
   273  2.7200000000000D+00  0.0000000000000D+00  0.0000000000000D+00
   274  2.7300000000000D+00  0.0000000000000D+00  0.0000000000000D+00
   275  2.7400000000000D+00  0.0000000000000D+00  0.0000000000000D+00
   276  2.7500000000000D+00  0.0000000000000D+00  0.0000000000000D+00
   277  2.7600000000000D+00  0.0000000000000D+00  0.0000000000000D+00
   278  2.7700000000000D+00  0.0000000000000D+00  0.0000000000000D+00
   279  2.7800000000000D+00  0.0000000000000D+00  0.0000000000000D+00
   280  2.7900000000000D+00  0.0000000000000D+00  0.0000000000000D+00
   281  2.8000000000000D+00  0.0000000000000D+00  0.0000000000000D+00
   282  2.8100000000000D+00  0.0000000000000D+00  0.0000000000000D+00
   283  2.8200000000000D+00  0.0000000000000D+00  0.0000000000000D+00
   284  2.8300000000000D+00  0.0000000000000D+00  0.0000000000000D+00
   285  2.8400000000000D+00  0.0000000000000D+00  0.0000000000000D+00
   286  2.8500000000000D+00  0.0000000000000D+00  0.0000000000000D+00
   287  2.8600000000000D+00  0.0000000000000D+00  0.0000000000000D+00
   288  2.8700000000000D+00  0.0000000000000D+00  0.0000000000000D+00
   289  2.8800000000000D+00  0.0000000000000D+00  0.0000000000000D+00
   290  2.8900000000000D+00  0.0000000000000D+00  0.0000000000000D+00
   291  2.9000000000000D+00  0.0000000000000D+00  0.0000000000000D+00
   292  2.9100000000000D+00  0.0000000000000D+00  0.0000000000000D+00
   293  2.9200000000000D+00  0.0000000000000D+00  0.0000000000000D+00
   294  2.9300000000000D+00  0.0000000000000D+00  0.0000000000000D+00
   295  2.9400000000000D+00  0.0000000000000D+00  0.0000000000000D+00
   296  2.9500000000000D+00  0.0000000000000D+00  0.0000000000000D+00
   297  2.9600000000000D+00  0.0000000000000D+00  0.0000000000000D+00
   298  2.9700000000000D+00  0.0000000000000D+00  0.0000000000000D+00
   299  2.9800000000000D+00  0.0000000000000D+00  0.0000000000000D+00
   300  2.9900000000000D+00  0.0000000000000D+00  0.0000000000000D+00
   301  3.0000000000000D+00  0.0000000000000D+00  0.0000000000000D+00
   302  3.0100000000000D+00  0.0000000000000D+00  0.0000000000000D+00
   303  3.0200000000000D+00  0.0000000000000D+00  0.0000000000000D+00
   304  3.0300000000000D+00  0.0000000000000D+00  0.0000000000000D+00
   305  3.0400000000000D+00  0.0000000000000D+00  0.0000000000000D+00
   306  3.0500000000000D+00  0.0000000000000D+00  0.0000000000000D+00
   307  3.0600000000000D+00  0.0000000000000D+00  0.0000000000000D+00
   308  3.0700000000000D+00  0.0000000000000D+00  0.0000000000000D+00
   309  3.0800000000000D+00  0.0000000000000D+00  0.0000000000000D+00
   310  3.0900000000000D+00  0.0000000000000D+00  0.0000000000000D+00
   311  3.1000000000000D+00  0.0000000000000D+00  0.0000000000000D+00
   312  3.1100000000000D+00  0.0000000000000D+00  0.0000000000000D+00
   313  3.1200000000000D+00  0.0000000000000D+00  0.0000000000000D+00
   314  3.1300000000000D+00  0.0000000000000D+00  0.0000000000000D+00
   315  3.1400000000000D+00  0.0000000000000D+00  0.0000000000000D+00
   316  3.1500000000000D+00  0.0000000000000D+00  0.0000000000000D+00
   317  3.1600000000000D+00  0.0000000000000D+00  0.0000000000000D+00
   318  3.1700000000000D+00  0.0000000000000D+00  0.0000000000000D+00
   319  3.1800000000000D+00  0.0000000000000D+00  0.0000000000000D+00
   320  3.1900000000000D+00  0.0000000000000D+00  0.0000000000000D+00
   321  3.2000000000000D+00  0.0000000000000D+00  0.0000000000000D+00
   322  3.2100000000000D+00  0.0000000000000D+00  0.0000000000000D+00
   323  3.2200000000000D+00  0.0000000000000D+00  0.0000000000000D+00
   324  3.2300000000000D+00  0.0000000000000D+00  0.0000000000000D+00
   325  3.2400000000000D+00  0.0000000000000D+00  0.0000000000000D+00
   326  3.2500000000000D+00  0.0000000000000D+00  0.0000000000000D+00
   327  3.2600000000000D+00  0.0000000000000D+00  0.0000000000000D+00
   328  3.2700000000000D+00  0.0000000000000D+00  0.0000000000000D+00
   329  3.2800000000000D+00  0.0000000000000D+00  0.0000000000000D+00
   330  3.2900000000000D+00  0.0000000000000D+00  0.0000000000000D+00
   331  3.3000000000000D+00  0.0000000000000D+00  0.0000000000000D+00
   332  3.3100000000000D+00  0.0000000000000D+00  0.0000000000000D+00
   333  3.3200000000000D+00  0.0000000000000D+00  0.0000000000000D+00
   334  3.3300000000000D+00  0.0000000000000D+00  0.0000000000000D+00
   335  3.3400000000000D+00  0.0000000000000D+00  0.0000000000000D+00
   336  3.3500000000000D+00  0.0000000000000D+00  0.0000000000000D+00
   337  3.3600000000000D+00  0.0000000000000D+00  0.0000000000000D+00
   338  3.3700000000000D+00  0.0000000000000D+00  0.0000000000000D+00
   339  3.3800000000000D+00  0.0000000000000D+00  0.0000000000000D+00
   340  3.3900000000000D+00  0.0000000000000D+00  0.0000000000000D+00
   341  3.4000000000000D+00  0.0000000000000D+00  0.0000000000000D+00
   342  3.4100000000000D+00  0.0000000000000D+00  0.0000000000000D+00
   343  3.4200000000000D+00  0.0000000000000D+00  0.0000000000000D+00
   344  3.4300000000000D+00  0.0000000000000D+00  0.0000000000000D+00
   345  3.4400000000000D+00  0.0000000000000D+00  0.0000000000000D+00
   346  3.4500000000000D+00  0.0000000000000D+00  0.0000000000000D+00
   347  3.4600000000000D+00  0.0000000000000D+00  0.0000000000000D+00
   348  3.4700000000000D+00  0.0000000000000D+00  0.0000000000000D+00
   349  3.4800000000000D+00  0.0000000000000D+00  0.0000000000000D+00
   350  3.4900000000000D+00  0.0000000000000D+00  0.0000000000000D+00
   351  3.5000000000000D+00  0.0000000000000D+00  0.0000000000000D+00
   352  3.5100000000000D+00  0.0000000000000D+00  0.0000000000000D+00
   353  3.5200000000000D+00  0.0000000000000D+00  0.0000000000000D+00
   354  3.5300000000000D+00  0.0000000000000D+00  0.0000000000000D+00
   355  3.5400000000000D+00  0.0000000000000D+00  0.0000000000000D+00
   356  3.5500000000000D+00  0.0000000000000D+00  0.0000000000000D+00
   357  3.5600000000000D+00  0.0000000000000D+00  0.0000000000000D+00
   358  3.5700000000000D+00  0.0000000000000D+00  0.0000000000000D+00
   359  3.5800000000000D+00  0.0000000000000D+00  0.0000000000000D+00
   360  3.5900000000000D+00  0.0000000000000D+00  0.0000000000000D+00
   361  3.6000000000000D+00  0.0000000000000D+00  0.0000000000000D+00
   362  3.6100000000000D+00  0.0000000000000D+00  0.0000000000000D+00
   363  3.6200000000000D+00  0.0000000000000D+00  0.0000000000000D+00
   364  3.6300000000000D+00  0.0000000000000D+00  0.0000000000000D+00
   365  3.6400000000000D+00  0.0000000000000D+00  0.0000000000000D+00
   366  3.6500000000000D+00  0.0000000000000D+00  0.0000000000000D+00
   367  3.6600000000000D+00  0.0000000000000D+00  0.0000000000000D+00
   368  3.6700000000000D+00  0.0000000000000D+00  0.0000000000000D+00
   369  3.6800000000000D+00  0.0000000000000D+00  0.0000000000000D+00
   370  3.6900000000000D+00  0.0000000000000D+00  0.0000000000000D+00
   371  3.7000000000000D+00  0.0000000000000D+00  0.0000000000000D+00
   372  3.7100000000000D+00  0.0000000000000D+00  0.0000000000000D+00
   373  3.7200000000000D+00  0.0000000000000D+00  0.0000000000000D+00
   374  3.7300000000000D+00  0.0000000000000D+00  0.0000000000000D+00
   375  3.7400000000000D+00  0.0000000000000D+00  0.0000000000000D+00
   376  3.7500000000000D+00  0.0000000000000D+00  0.0000000000000D+00
   377  3.7600000000000D+00  0.0000000000000D+00  0.0000000000000D+00
   378  3.7700000000000D+00  0.0000000000000D+00  0.0000000000000D+00
   379  3.7800000000000D+00  0.0000000000000D+00  0.0000000000000D+00
   380  3.7900000000000D+00  0.0000000000000D+00  0.0000000000000D+00
   381  3.8000000000000D+00  0.0000000000000D+00  0.0000000000000D+00
   382  3.8100000000000D+00  0.0000000000000D+00  0.0000000000000D+00
   383  3.8200000000000D+00  0.0000000000000D+00  0.0000000000000D+00
   384  3.8300000000000D+00  0.0000000000000D+00  0.0000000000000D+00
   385  3.8400000000000D+00  0.0000000000000D+00  0.0000000000000D+00
   386  3.8500000000000D+00  0.0000000000000D+00  0.0000000000000D+00
   387  3.8600000000000D+00  0.0000000000000D+00  0.0000000000000D+00
   388  3.8700000000000D+00  0.0000000000000D+00  0.0000000000000D+00
   389  3.8800000000000D+00  0.0000000000000D+00  0.0000000000000D+00
   390  3.8900000000000D+00  0.0000000000000D+00  0.0000000000000D+00
   391  3.9000000000000D+00  0.0000000000000D+00  0.0000000000000D+00
   392  3.9100000000000D+00  0.0000000000000D+00  0.0000000000000D+00
   393  3.9200000000000D+00  0.0000000000000D+00  0.0000000000000D+00
   394  3.9300000000000D+00  0.0000000000000D+00  0.0000000000000D+00
   395  3.9400000000000D+00  0.0000000000000D+00  0.0000000000000D+00
   396  3.9500000000000D+00  0.0000000000000D+00  0.0000000000000D+00
   397  3.9600000000000D+00  0.0000000000000D+00  0.0000000000000D+00
   398  3.9700000000000D+00  0.0000000000000D+00  0.0000000000000D+00
   399  3.9800000000000D+00  0.0000000000000D+00  0.0000000000000D+00
   400  3.9900000000000D+00  0.0000000000000D+00  0.0000000000000D+00
   401  4.0000000000000D+00  0.0000000000000D+00  0.0000000000000D+00
   402  4.0100000000000D+00  0.0000000000000D+00  0.0000000000000D+00
   403  4.0200000000000D+00  0.0000000000000D+00  0.0000000000000D+00
   404  4.0300000000000D+00  0.0000000000000D+00  0.0000000000000D+00
   405  4.0400000000000D+00  0.0000000000000D+00  0.0000000000000D+00
   406  4.0500000000000D+00  0.0000000000000D+00  0.0000000000000D+00
   407  4.0600000000000D+00  0.0000000000000D+00  0.0000000000000D+00
   408  4.0700000000000D+00  0.0000000000000D+00  0.0000000000000D+00
   409  4.0800000000000D+00  0.0000000000000D+00  0.0000000000000D+00
   410  4.0900000000000D+00  0.0000000000000D+00  0.0000000000000D+00
   411  4.1000000000000D+00  0.0000000000000D+00  0.0000000000000D+00
   412  4.1100000000000D+00  0.0000000000000D+00  0.0000000000000D+00
   413  4.1200000000000D+00  0.0000000000000D+00  0.0000000000000D+00
   414  4.1300000000000D+00  0.0000000000000D+00  0.0000000000000D+00
   415  4.1400000000000D+00  0.0000000000000D+00  0.0000000000000D+00
   416  4.1500000000000D+00  0.0000000000000D+00  0.0000000000000D+00
   417  4.1600000000000D+00  0.0000000000000D+00  0.0000000000000D+00
   418  4.1700000000000D+00  0.0000000000000D+00  0.0000000000000D+00
   419  4.1800000000000D+00  0.0000000000000D+00  0.0000000000000D+00
   420  4.1900000000000D+00  0.0000000000000D+00  0.0000000000000D+00
   421  4.2000000000000D+00  0.0000000000000D+00  0.0000000000000D+00
   422  4.2100000000000D+00  0.0000000000000D+00  0.0000000000000D+00
   423  4.2200000000000D+00  0.0000000000000D+00  0.0000000000000D+00