Cs    ONCVPSP-3.3.0  r_core=   2.27353   1.85623   2.01788   1.90105
     55.0000      9.0000      220408    zatom,zion,pspd
     8       2   3     4   600     0    pspcod,pspxc,lmax,lloc,mmax,r2well
  5.99000000  0.00000000  0.00000000    rchrg fchrg qchrg
     2     2     2     2     0    nproj
     1     1           extension_switch
   0                         6.2469005566853D+00  7.7823176685655D-01
     1  0.0000000000000D+00  3.4461322684365D-12 -8.4422130744444D-12
     2  1.0000000000000D-02  2.2553787872381D-02  1.2226097081837D-03
     3  2.0000000000000D-02  4.5114659337303D-02  2.4098167798260D-03
     4  3.0000000000000D-02  6.7689621938117D-02  3.5264054336164D-03
     5  4.0000000000000D-02  9.0285531404958D-02  4.5375329009359D-03
     6  5.0000000000000D-02  1.1290901646015D-01  5.4089141898982D-03
     7  6.0000000000000D-02  1.3556640447561D-01  6.1070047645870D-03
     8  7.0000000000000D-02  1.5826364826219D-01  6.5991804544730D-03
     9  8.0000000000000D-02  1.8100625426742D-01  6.8539139174402D-03
    10  9.0000000000000D-02  2.0379921245394D-01  6.8409469904634D-03
    11  1.0000000000000D-01  2.2664692812547D-01  6.5314582745450D-03
    12  1.1000000000000D-01  2.4955315596158D-01  5.8982253151976D-03
    13  1.2000000000000D-01  2.7252093651543D-01  4.9157807564516D-03
    14  1.3000000000000D-01  2.9555253542108D-01  3.5605618649659D-03
    15  1.4000000000000D-01  3.1864938554892D-01  1.8110528414129D-03
    16  1.5000000000000D-01  3.4181203233819D-01 -3.5208064122423D-04
    17  1.6000000000000D-01  3.6504008252597D-01 -2.9458652085476D-03
    18  1.7000000000000D-01  3.8833215648147D-01 -5.9849023747750D-03
    19  1.8000000000000D-01  4.1168584434300D-01 -9.4812604341242D-03
    20  1.9000000000000D-01  4.3509766614315D-01 -1.3444376106212D-02
    21  2.0000000000000D-01  4.5856303609524D-01 -1.7880966357156D-02
    22  2.1000000000000D-01  4.8207623120076D-01 -2.2794950785285D-02
    23  2.2000000000000D-01  5.0563036432394D-01 -2.8187384926610D-02
    24  2.3000000000000D-01  5.2921736186523D-01 -3.4056404799450D-02
    25  2.4000000000000D-01  5.5282794615073D-01 -4.0397182971226D-02
    26  2.5000000000000D-01  5.7645162263945D-01 -4.7201896392384D-02
    27  2.6000000000000D-01  6.0007667203464D-01 -5.4459706203496D-02
    28  2.7000000000000D-01  6.2369014736921D-01 -6.2156749681662D-02
    29  2.8000000000000D-01  6.4727787611936D-01 -7.0276144451496D-02
    30  2.9000000000000D-01  6.7082446738344D-01 -7.8798005044311D-02
    31  3.0000000000000D-01  6.9431332414659D-01 -8.7699471847047D-02
    32  3.1000000000000D-01  7.1772666063435D-01 -9.6954752439428D-02
    33  3.2000000000000D-01  7.4104552474152D-01 -1.0653517527488D-01
    34  3.3000000000000D-01  7.6424982550499D-01 -1.1640925561708D-01
    35  3.4000000000000D-01  7.8731836557225D-01 -1.2654277360049D-01
    36  3.5000000000000D-01  8.1022887859962D-01 -1.3689886423932D-01
    37  3.6000000000000D-01  8.3295807149737D-01 -1.4743811916626D-01
    38  3.7000000000000D-01  8.5548167142153D-01 -1.5811869983841D-01
    39  3.8000000000000D-01  8.7777447739528D-01 -1.6889646190549D-01
    40  3.9000000000000D-01  8.9981041642630D-01 -1.7972509039270D-01
    41  4.0000000000000D-01  9.2156260396966D-01 -1.9055624530907D-01
    42  4.1000000000000D-01  9.4300340857025D-01 -2.0133971725119D-01
    43  4.2000000000000D-01  9.6410452050245D-01 -2.1202359253243D-01
    44  4.3000000000000D-01  9.8483702421016D-01 -2.2255442732906D-01
    45  4.4000000000000D-01  1.0051714743351D+00 -2.3287743029695D-01
    46  4.5000000000000D-01  1.0250779751072D+00 -2.4293665307682D-01
    47  4.6000000000000D-01  1.0445262628577D+00 -2.5267518807127D-01
    48  4.7000000000000D-01  1.0634857914020D+00 -2.6203537284423D-01
    49  4.8000000000000D-01  1.0819258200285D+00 -2.7095900046229D-01
    50  4.9000000000000D-01  1.0998155038154D+00 -2.7938753506870D-01
    51  5.0000000000000D-01  1.1171239859915D+00 -2.8726233195389D-01
    52  5.1000000000000D-01  1.1338204920416D+00 -2.9452486136156D-01
    53  5.2000000000000D-01  1.1498744252541D+00 -3.0111693524767D-01
    54  5.3000000000000D-01  1.1652554633949D+00 -3.0698093618929D-01
    55  5.4000000000000D-01  1.1799336561901D+00 -3.1206004762387D-01
    56  5.5000000000000D-01  1.1938795232893D+00 -3.1629848458426D-01
    57  5.6000000000000D-01  1.2070641523805D+00 -3.1964172408391D-01
    58  5.7000000000000D-01  1.2194592971213D+00 -3.2203673429750D-01
    59  5.8000000000000D-01  1.2310374745489D+00 -3.2343220167656D-01
    60  5.9000000000000D-01  1.2417720616309D+00 -3.2377875513696D-01
    61  6.0000000000000D-01  1.2516373906178D+00 -3.2302918645562D-01
    62  6.1000000000000D-01  1.2606088428588D+00 -3.2113866601703D-01
    63  6.2000000000000D-01  1.2686629407447D+00 -3.1806495305699D-01
    64  6.3000000000000D-01  1.2757774374445D+00 -3.1376859956101D-01
    65  6.4000000000000D-01  1.2819314041087D+00 -3.0821314698794D-01
    66  6.5000000000000D-01  1.2871053142140D+00 -3.0136531500541D-01
    67  6.6000000000000D-01  1.2912811247347D+00 -2.9319518144374D-01
    68  6.7000000000000D-01  1.2944423538320D+00 -2.8367635269773D-01
    69  6.8000000000000D-01  1.2965741547616D+00 -2.7278612383118D-01
    70  6.9000000000000D-01  1.2976633857116D+00 -2.6050562766877D-01
    71  7.0000000000000D-01  1.2976986752917D+00 -2.4681997219178D-01
    72  7.1000000000000D-01  1.2966704834100D+00 -2.3171836558914D-01
    73  7.2000000000000D-01  1.2945711572843D+00 -2.1519422835347D-01
    74  7.3000000000000D-01  1.2913949823528D+00 -1.9724529185278D-01
    75  7.4000000000000D-01  1.2871382278607D+00 -1.7787368285159D-01
    76  7.5000000000000D-01  1.2817991869186D+00 -1.5708599350161D-01
    77  7.6000000000000D-01  1.2753782108461D+00 -1.3489333637065D-01
    78  7.7000000000000D-01  1.2678777376290D+00 -1.1131138412873D-01
    79  7.8000000000000D-01  1.2593023143414D+00 -8.6360393563758D-02
    80  7.9000000000000D-01  1.2496586134020D+00 -6.0065213653401D-02
    81  8.0000000000000D-01  1.2389554425532D+00 -3.2455277476659D-02
    82  8.1000000000000D-01  1.2272037484743D+00 -3.5645778062553D-03
    83  8.2000000000000D-01  1.2144166139612D+00  2.6568373717215D-02
    84  8.3000000000000D-01  1.2006092486260D+00  5.7900603868471D-02
    85  8.4000000000000D-01  1.1857989730933D+00  9.0384751555548D-02
    86  8.5000000000000D-01  1.1700051966913D+00  1.2396915788797D-01
    87  8.6000000000000D-01  1.1532493886597D+00  1.5859797244849D-01
    88  8.7000000000000D-01  1.1355550429191D+00  1.9421127555872D-01
    89  8.8000000000000D-01  1.1169476364677D+00  2.3074521626676D-01
    90  8.9000000000000D-01  1.0974545814975D+00  2.6813216572276D-01
    91  9.0000000000000D-01  1.0771051713401D+00  3.0630088554639D-01
    92  9.1000000000000D-01  1.0559305203796D+00  3.4517671073013D-01
    93  9.2000000000000D-01  1.0339634980881D+00  3.8468174656186D-01
    94  9.3000000000000D-01  1.0112386573630D+00  4.2473507899244D-01
    95  9.4000000000000D-01  9.8779215736722D-01  4.6525299781723D-01
    96  9.5000000000000D-01  9.6366168109062D-01  5.0614923198518D-01
    97  9.6000000000000D-01  9.3888634787586D-01  5.4733519629697D-01
    98  9.7000000000000D-01  9.1350662116624D-01  5.8872024870331D-01
    99  9.8000000000000D-01  8.8756421175450D-01  6.3021195736583D-01
   100  9.9000000000000D-01  8.6110197682780D-01  6.7171637659892D-01
   101  1.0000000000000D+00  8.3416381512069D-01  7.1313833076835D-01
   102  1.0100000000000D+00  8.0679455850313D-01  7.5438170518402D-01
   103  1.0200000000000D+00  7.7903986034519D-01  7.9534974298848D-01
   104  1.0300000000000D+00  7.5094608101278D-01  8.3594534701103D-01
   105  1.0400000000000D+00  7.2256017086047D-01  8.7607138553043D-01
   106  1.0500000000000D+00  6.9392955109837D-01  9.1563100086306D-01
   107  1.0600000000000D+00  6.6510199291888D-01  9.5452791967516D-01
   108  1.0700000000000D+00  6.3612549527672D-01  9.9266676390097D-01
   109  1.0800000000000D+00  6.0704816172230D-01  1.0299533611379D+00
   110  1.0900000000000D+00  5.7791807669281D-01  1.0662950533818D+00
   111  1.1000000000000D+00  5.4878318166925D-01  1.1016010029634D+00
   112  1.1100000000000D+00  5.1969115160902D-01  1.1357824945478D+00
   113  1.1200000000000D+00  4.9068927206411D-01  1.1687532320678D+00
   114  1.1300000000000D+00  4.6182431739332D-01  1.2004296294695D+00
   115  1.1400000000000D+00  4.3314243047488D-01  1.2307310941650D+00
   116  1.1500000000000D+00  4.0468900432058D-01  1.2595803021088D+00
   117  1.1600000000000D+00  3.7650856598665D-01  1.2869034634380D+00
   118  1.1700000000000D+00  3.4864466316968D-01  1.3126305776444D+00
   119  1.1800000000000D+00  3.2113975386750D-01  1.3366956772778D+00
   120  1.1900000000000D+00  2.9403509947305D-01  1.3590370592213D+00
   121  1.2000000000000D+00  2.6737066165632D-01  1.3795975026267D+00
   122  1.2100000000000D+00  2.4118500338258D-01  1.3983244726184D+00
   123  1.2200000000000D+00  2.1551519439299D-01  1.4151703089542D+00
   124  1.2300000000000D+00  1.9039672145975D-01  1.4300923988728D+00
   125  1.2400000000000D+00  1.6586340371542D-01  1.4430533334002D+00
   126  1.2500000000000D+00  1.4194731333504D-01  1.4540210464600D+00
   127  1.2600000000000D+00  1.1867870182531D-01  1.4629689362043D+00
   128  1.2700000000000D+00  9.6085932163357D-02  1.4698759680251D+00
   129  1.2800000000000D+00  7.4195417006526D-02  1.4747267587706D+00
   130  1.2900000000000D+00  5.3031563159483D-02  1.4775116418033D+00
   131  1.3000000000000D+00  3.2616722478490D-02  1.4782267125538D+00
   132  1.3100000000000D+00  1.2971149367177D-02  1.4768738543085D+00
   133  1.3200000000000D+00 -5.8870350250101D-03  1.4734607440987D+00
   134  1.3300000000000D+00 -2.3941871784804D-02  1.4680008385437D+00
   135  1.3400000000000D+00 -4.1179586322160D-02  1.4605133396255D+00
   136  1.3500000000000D+00 -5.7588603528069D-02  1.4510231405008D+00
   137  1.3600000000000D+00 -7.3159555945166D-02  1.4395607513783D+00
   138  1.3700000000000D+00 -8.7885284972399D-02  1.4261622057365D+00
   139  1.3800000000000D+00 -1.0176083512697D-01  1.4108689471526D+00
   140  1.3900000000000D+00 -1.1478344138284D-01  1.3937276970102D+00
   141  1.4000000000000D+00 -1.2695250969854D-01  1.3747903036226D+00
   142  1.4100000000000D+00 -1.3826959079466D-01  1.3541135731584D+00
   143  1.4200000000000D+00 -1.4873834731217D-01  1.3317590829615D+00
   144  1.4300000000000D+00 -1.5836451451228D-01  1.3077929779395D+00
   145  1.4400000000000D+00 -1.6715585463544D-01  1.2822857505737D+00
   146  1.4500000000000D+00 -1.7512210516229D-01  1.2553120054593D+00
   147  1.4600000000000D+00 -1.8227492113205D-01  1.2269502090321D+00
   148  1.4700000000000D+00 -1.8862781177200D-01  1.1972824254212D+00
   149  1.4800000000000D+00 -1.9419607168062D-01  1.1663940393203D+00
   150  1.4900000000000D+00 -1.9899670679748D-01  1.1343734667627D+00
   151  1.5000000000000D+00 -2.0304835548704D-01  1.1013118549123D+00
   152  1.5100000000000D+00 -2.0637120496356D-01  1.0673027717423D+00
   153  1.5200000000000D+00 -2.0898690342470D-01  1.0324418868113D+00
   154  1.5300000000000D+00 -2.1091846815985D-01  9.9682664410390D-01
   155  1.5400000000000D+00 -2.1219018999296D-01  9.6055592812420D-01
   156  1.5500000000000D+00 -2.1282753437831D-01  9.2372972432035D-01
   157  1.5600000000000D+00 -2.1285703949776D-01  8.8644877500893D-01
   158  1.5700000000000D+00 -2.1230621171026D-01  8.4881423191979D-01
   159  1.5800000000000D+00 -2.1120341870271D-01  8.1092730654834D-01
   160  1.5900000000000D+00 -2.0957778069928D-01  7.7288891939462D-01
   161  1.6000000000000D+00 -2.0745906009219D-01  7.3479934933550D-01
   162  1.6100000000000D+00 -2.0487754983301D-01  6.9675788409696D-01
   163  1.6200000000000D+00 -2.0186396096870D-01  6.5886247314004D-01
   164  1.6300000000000D+00 -1.9844930963026D-01  6.2120938379612D-01
   165  1.6400000000000D+00 -1.9466480387233D-01  5.8389286198475D-01
   166  1.6500000000000D+00 -1.9054173063961D-01  5.4700479823587D-01
   167  1.6600000000000D+00 -1.8611134326055D-01  5.1063440032187D-01
   168  1.6700000000000D+00 -1.8140474971056D-01  4.7486787310350D-01
   169  1.6800000000000D+00 -1.7645280203960D-01  4.3978810684713D-01
   170  1.6900000000000D+00 -1.7128598716632D-01  4.0547437447508D-01
   171  1.7000000000000D+00 -1.6593431942716D-01  3.7200203896103D-01
   172  1.7100000000000D+00 -1.6042723502933D-01  3.3944227114436D-01
   173  1.7200000000000D+00 -1.5479348879675D-01  3.0786177915986D-01
   174  1.7300000000000D+00 -1.4906105328462D-01  2.7732254949842D-01
   175  1.7400000000000D+00 -1.4325702066782D-01  2.4788160093842D-01
   176  1.7500000000000D+00 -1.3740750737794D-01  2.1959075101184D-01
   177  1.7600000000000D+00 -1.3153756193499D-01  1.9249639637270D-01
   178  1.7700000000000D+00 -1.2567107581326D-01  1.6663930626965D-01
   179  1.7800000000000D+00 -1.1983069785899D-01  1.4205443072007D-01
   180  1.7900000000000D+00 -1.1403775193092D-01  1.1877072202068D-01
   181  1.8000000000000D+00 -1.0831215701331D-01  9.6810965184085D-02
   182  1.8100000000000D+00 -1.0267235819078D-01  7.6191656601044D-02
   183  1.8200000000000D+00 -9.7135236108598D-02  5.6922781741520D-02
   184  1.8300000000000D+00 -9.1716084508792D-02  3.9007895309545D-02
   185  1.8400000000000D+00 -8.6428517183926D-02  2.2443892654007D-02
   186  1.8500000000000D+00 -8.1284323933449D-02  7.2205179897657D-03
   187  1.8600000000000D+00 -7.6293523407455D-02 -6.6792090559166D-03
   188  1.8700000000000D+00 -7.1464515920887D-02 -1.9278086334051D-02
   189  1.8800000000000D+00 -6.6804207166790D-02 -3.0604015763119D-02
   190  1.8900000000000D+00 -6.2318187656517D-02 -4.0689142033986D-02
   191  1.9000000000000D+00 -5.8010975792428D-02 -4.9568678905787D-02
   192  1.9100000000000D+00 -5.3885959221571D-02 -5.7281170501569D-02
   193  1.9200000000000D+00 -4.9945404682160D-02 -6.3868477391533D-02
   194  1.9300000000000D+00 -4.6190547255148D-02 -6.9375349120320D-02
   195  1.9400000000000D+00 -4.2621631856438D-02 -7.3849246556540D-02
   196  1.9500000000000D+00 -3.9237967066551D-02 -7.7340109894296D-02
   197  1.9600000000000D+00 -3.6037985363891D-02 -7.9900100741922D-02
   198  1.9700000000000D+00 -3.3019302743418D-02 -8.1583352403548D-02
   199  1.9800000000000D+00 -3.0178781514228D-02 -8.2445709792833D-02
   200  1.9900000000000D+00 -2.7512594954005D-02 -8.2544464546644D-02
   201  2.0000000000000D+00 -2.5016293751406D-02 -8.1938085731357D-02
   202  2.0100000000000D+00 -2.2684873740318D-02 -8.0685947720727D-02
   203  2.0200000000000D+00 -2.0512844700650D-02 -7.8848056115979D-02
   204  2.0300000000000D+00 -1.8494299891301D-02 -7.6484772829366D-02
   205  2.0400000000000D+00 -1.6622985989223D-02 -7.3656541422277D-02
   206  2.0500000000000D+00 -1.4892373082520D-02 -7.0423613982568D-02
   207  2.0600000000000D+00 -1.3295724507390D-02 -6.6845780158853D-02
   208  2.0700000000000D+00 -1.1826166040973D-02 -6.2982100115268D-02
   209  2.0800000000000D+00 -1.0476754302824D-02 -5.8890641844109D-02
   210  2.0900000000000D+00 -9.2405440109103D-03 -5.4628224056563D-02
   211  2.1000000000000D+00 -8.1106536299528D-03 -5.0250166258608D-02
   212  2.1100000000000D+00 -7.0803295244107D-03 -4.5810045556381D-02
   213  2.1200000000000D+00 -6.1430077733489D-03 -4.1359463133369D-02
   214  2.1300000000000D+00 -5.2923738693309D-03 -3.6947819579093D-02
   215  2.1400000000000D+00 -4.5224198622054D-03 -3.2622100575485D-02
   216  2.1500000000000D+00 -3.8274984068551D-03 -2.8426674794529D-02
   217  2.1600000000000D+00 -3.2023742063898D-03 -2.4403102280808D-02
   218  2.1700000000000D+00 -2.6422717030745D-03 -2.0589957263010D-02
   219  2.1800000000000D+00 -2.1429194962461D-03 -1.7022663722317D-02
   220  2.1900000000000D+00 -1.7005912532412D-03 -1.3733344506969D-02
   221  2.2000000000000D+00 -1.3123898000963D-03 -1.0752792977703D-02
   222  2.2100000000000D+00 -9.7541128648826D-04 -8.1029597731674D-03
   223  2.2200000000000D+00 -6.8739213011818D-04 -5.8020840443268D-03
   224  2.2300000000000D+00 -4.4623752757795D-04 -3.8572745091605D-03
   225  2.2400000000000D+00 -2.5466343463227D-04 -2.3169118743787D-03
   226  2.2500000000000D+00 -1.1408392435158D-04 -1.2082521071446D-03
   227  2.2600000000000D+00 -2.3417904694935D-05 -5.1514236967739D-04
   228  2.2700000000000D+00  2.3053313519207D-05 -1.4542916876738D-04
   229  2.2800000000000D+00  3.2521419769143D-05  5.6412369586989D-06
   230  2.2900000000000D+00  1.9720208425665D-05  3.0354889607455D-05
   231  2.3000000000000D+00  1.3288219396155D-06  2.7184231177485D-06
   232  2.3100000000000D+00 -5.8675361491744D-06 -1.3738767042838D-05
   233  2.3200000000000D+00 -4.5186915779365D-06 -1.1571639787973D-05
   234  2.3300000000000D+00  2.7185751849281D-07  4.7140988583876D-07
   235  2.3400000000000D+00  1.2426472467574D-06  2.3260766799416D-06
   236  2.3500000000000D+00  7.6729907916617D-07  1.5190047662792D-06
   237  2.3600000000000D+00 -3.8717117466980D-08  9.3711910397526D-08
   238  2.3700000000000D+00 -8.6297324688738D-08  2.0887627199195D-07
   239  2.3800000000000D+00 -4.0216740625901D-08  9.7341636996329D-08
   240  2.3900000000000D+00  0.0000000000000D+00  0.0000000000000D+00
   241  2.4000000000000D+00  0.0000000000000D+00  0.0000000000000D+00
   242  2.4100000000000D+00  0.0000000000000D+00  0.0000000000000D+00
   243  2.4200000000000D+00  0.0000000000000D+00  0.0000000000000D+00
   244  2.4300000000000D+00  0.0000000000000D+00  0.0000000000000D+00
   245  2.4400000000000D+00  0.0000000000000D+00  0.0000000000000D+00
   246  2.4500000000000D+00  0.0000000000000D+00  0.0000000000000D+00
   247  2.4600000000000D+00  0.0000000000000D+00  0.0000000000000D+00
   248  2.4700000000000D+00  0.0000000000000D+00  0.0000000000000D+00
   249  2.4800000000000D+00  0.0000000000000D+00  0.0000000000000D+00
   250  2.4900000000000D+00  0.0000000000000D+00  0.0000000000000D+00
   251  2.5000000000000D+00  0.0000000000000D+00  0.0000000000000D+00
   252  2.5100000000000D+00  0.0000000000000D+00  0.0000000000000D+00
   253  2.5200000000000D+00  0.0000000000000D+00  0.0000000000000D+00
   254  2.5300000000000D+00  0.0000000000000D+00  0.0000000000000D+00
   255  2.5400000000000D+00  0.0000000000000D+00  0.0000000000000D+00
   256  2.5500000000000D+00  0.0000000000000D+00  0.0000000000000D+00
   257  2.5600000000000D+00  0.0000000000000D+00  0.0000000000000D+00
   258  2.5700000000000D+00  0.0000000000000D+00  0.0000000000000D+00
   259  2.5800000000000D+00  0.0000000000000D+00  0.0000000000000D+00
   260  2.5900000000000D+00  0.0000000000000D+00  0.0000000000000D+00
   261  2.6000000000000D+00  0.0000000000000D+00  0.0000000000000D+00
   262  2.6100000000000D+00  0.0000000000000D+00  0.0000000000000D+00
   263  2.6200000000000D+00  0.0000000000000D+00  0.0000000000000D+00
   264  2.6300000000000D+00  0.0000000000000D+00  0.0000000000000D+00
   265  2.6400000000000D+00  0.0000000000000D+00  0.0000000000000D+00
   266  2.6500000000000D+00  0.0000000000000D+00  0.0000000000000D+00
   267  2.6600000000000D+00  0.0000000000000D+00  0.0000000000000D+00
   268  2.6700000000000D+00  0.0000000000000D+00  0.0000000000000D+00
   269  2.6800000000000D+00  0.0000000000000D+00  0.0000000000000D+00
   270  2.6900000000000D+00  0.0000000000000D+00  0.0000000000000D+00
   271  2.7000000000000D+00  0.0000000000000D+00  0.0000000000000D+00
   272  2.7100000000000D+00  0.0000000000000D+00  0.0000000000000D+00
   273  2.7200000000000D+00  0.0000000000000D+00  0.0000000000000D+00
   274  2.7300000000000D+00  0.0000000000000D+00  0.0000000000000D+00
   275  2.7400000000000D+00  0.0000000000000D+00  0.0000000000000D+00
   276  2.7500000000000D+00  0.0000000000000D+00  0.0000000000000D+00
   277  2.7600000000000D+00  0.0000000000000D+00  0.0000000000000D+00
   278  2.7700000000000D+00  0.0000000000000D+00  0.0000000000000D+00
   279  2.7800000000000D+00  0.0000000000000D+00  0.0000000000000D+00
   280  2.7900000000000D+00  0.0000000000000D+00  0.0000000000000D+00
   281  2.8000000000000D+00  0.0000000000000D+00  0.0000000000000D+00
   282  2.8100000000000D+00  0.0000000000000D+00  0.0000000000000D+00
   283  2.8200000000000D+00  0.0000000000000D+00  0.0000000000000D+00
   284  2.8300000000000D+00  0.0000000000000D+00  0.0000000000000D+00
   285  2.8400000000000D+00  0.0000000000000D+00  0.0000000000000D+00
   286  2.8500000000000D+00  0.0000000000000D+00  0.0000000000000D+00
   287  2.8600000000000D+00  0.0000000000000D+00  0.0000000000000D+00
   288  2.8700000000000D+00  0.0000000000000D+00  0.0000000000000D+00
   289  2.8800000000000D+00  0.0000000000000D+00  0.0000000000000D+00
   290  2.8900000000000D+00  0.0000000000000D+00  0.0000000000000D+00
   291  2.9000000000000D+00  0.0000000000000D+00  0.0000000000000D+00
   292  2.9100000000000D+00  0.0000000000000D+00  0.0000000000000D+00
   293  2.9200000000000D+00  0.0000000000000D+00  0.0000000000000D+00
   294  2.9300000000000D+00  0.0000000000000D+00  0.0000000000000D+00
   295  2.9400000000000D+00  0.0000000000000D+00  0.0000000000000D+00
   296  2.9500000000000D+00  0.0000000000000D+00  0.0000000000000D+00
   297  2.9600000000000D+00  0.0000000000000D+00  0.0000000000000D+00
   298  2.9700000000000D+00  0.0000000000000D+00  0.0000000000000D+00
   299  2.9800000000000D+00  0.0000000000000D+00  0.0000000000000D+00
   300  2.9900000000000D+00  0.0000000000000D+00  0.0000000000000D+00
   301  3.0000000000000D+00  0.0000000000000D+00  0.0000000000000D+00
   302  3.0100000000000D+00  0.0000000000000D+00  0.0000000000000D+00
   303  3.0200000000000D+00  0.0000000000000D+00  0.0000000000000D+00
   304  3.0300000000000D+00  0.0000000000000D+00  0.0000000000000D+00
   305  3.0400000000000D+00  0.0000000000000D+00  0.0000000000000D+00
   306  3.0500000000000D+00  0.0000000000000D+00  0.0000000000000D+00
   307  3.0600000000000D+00  0.0000000000000D+00  0.0000000000000D+00
   308  3.0700000000000D+00  0.0000000000000D+00  0.0000000000000D+00
   309  3.0800000000000D+00  0.0000000000000D+00  0.0000000000000D+00
   310  3.0900000000000D+00  0.0000000000000D+00  0.0000000000000D+00
   311  3.1000000000000D+00  0.0000000000000D+00  0.0000000000000D+00
   312  3.1100000000000D+00  0.0000000000000D+00  0.0000000000000D+00
   313  3.1200000000000D+00  0.0000000000000D+00  0.0000000000000D+00
   314  3.1300000000000D+00  0.0000000000000D+00  0.0000000000000D+00
   315  3.1400000000000D+00  0.0000000000000D+00  0.0000000000000D+00
   316  3.1500000000000D+00  0.0000000000000D+00  0.0000000000000D+00
   317  3.1600000000000D+00  0.0000000000000D+00  0.0000000000000D+00
   318  3.1700000000000D+00  0.0000000000000D+00  0.0000000000000D+00
   319  3.1800000000000D+00  0.0000000000000D+00  0.0000000000000D+00
   320  3.1900000000000D+00  0.0000000000000D+00  0.0000000000000D+00
   321  3.2000000000000D+00  0.0000000000000D+00  0.0000000000000D+00
   322  3.2100000000000D+00  0.0000000000000D+00  0.0000000000000D+00
   323  3.2200000000000D+00  0.0000000000000D+00  0.0000000000000D+00
   324  3.2300000000000D+00  0.0000000000000D+00  0.0000000000000D+00
   325  3.2400000000000D+00  0.0000000000000D+00  0.0000000000000D+00
   326  3.2500000000000D+00  0.0000000000000D+00  0.0000000000000D+00
   327  3.2600000000000D+00  0.0000000000000D+00  0.0000000000000D+00
   328  3.2700000000000D+00  0.0000000000000D+00  0.0000000000000D+00
   329  3.2800000000000D+00  0.0000000000000D+00  0.0000000000000D+00
   330  3.2900000000000D+00  0.0000000000000D+00  0.0000000000000D+00
   331  3.3000000000000D+00  0.0000000000000D+00  0.0000000000000D+00
   332  3.3100000000000D+00  0.0000000000000D+00  0.0000000000000D+00
   333  3.3200000000000D+00  0.0000000000000D+00  0.0000000000000D+00
   334  3.3300000000000D+00  0.0000000000000D+00  0.0000000000000D+00
   335  3.3400000000000D+00  0.0000000000000D+00  0.0000000000000D+00
   336  3.3500000000000D+00  0.0000000000000D+00  0.0000000000000D+00
   337  3.3600000000000D+00  0.0000000000000D+00  0.0000000000000D+00
   338  3.3700000000000D+00  0.0000000000000D+00  0.0000000000000D+00
   339  3.3800000000000D+00  0.0000000000000D+00  0.0000000000000D+00
   340  3.3900000000000D+00  0.0000000000000D+00  0.0000000000000D+00
   341  3.4000000000000D+00  0.0000000000000D+00  0.0000000000000D+00
   342  3.4100000000000D+00  0.0000000000000D+00  0.0000000000000D+00
   343  3.4200000000000D+00  0.0000000000000D+00  0.0000000000000D+00
   344  3.4300000000000D+00  0.0000000000000D+00  0.0000000000000D+00
   345  3.4400000000000D+00  0.0000000000000D+00  0.0000000000000D+00
   346  3.4500000000000D+00  0.0000000000000D+00  0.0000000000000D+00
   347  3.4600000000000D+00  0.0000000000000D+00  0.0000000000000D+00
   348  3.4700000000000D+00  0.0000000000000D+00  0.0000000000000D+00
   349  3.4800000000000D+00  0.0000000000000D+00  0.0000000000000D+00
   350  3.4900000000000D+00  0.0000000000000D+00  0.0000000000000D+00
   351  3.5000000000000D+00  0.0000000000000D+00  0.0000000000000D+00
   352  3.5100000000000D+00  0.0000000000000D+00  0.0000000000000D+00
   353  3.5200000000000D+00  0.0000000000000D+00  0.0000000000000D+00
   354  3.5300000000000D+00  0.0000000000000D+00  0.0000000000000D+00
   355  3.5400000000000D+00  0.0000000000000D+00  0.0000000000000D+00
   356  3.5500000000000D+00  0.0000000000000D+00  0.0000000000000D+00
   357  3.5600000000000D+00  0.0000000000000D+00  0.0000000000000D+00
   358  3.5700000000000D+00  0.0000000000000D+00  0.0000000000000D+00
   359  3.5800000000000D+00  0.0000000000000D+00  0.0000000000000D+00
   360  3.5900000000000D+00  0.0000000000000D+00  0.0000000000000D+00
   361  3.6000000000000D+00  0.0000000000000D+00  0.0000000000000D+00
   362  3.6100000000000D+00  0.0000000000000D+00  0.0000000000000D+00
   363  3.6200000000000D+00  0.0000000000000D+00  0.0000000000000D+00
   364  3.6300000000000D+00  0.0000000000000D+00  0.0000000000000D+00
   365  3.6400000000000D+00  0.0000000000000D+00  0.0000000000000D+00
   366  3.6500000000000D+00  0.0000000000000D+00  0.0000000000000D+00
   367  3.6600000000000D+00  0.0000000000000D+00  0.0000000000000D+00
   368  3.6700000000000D+00  0.0000000000000D+00  0.0000000000000D+00
   369  3.6800000000000D+00  0.0000000000000D+00  0.0000000000000D+00
   370  3.6900000000000D+00  0.0000000000000D+00  0.0000000000000D+00
   371  3.7000000000000D+00  0.0000000000000D+00  0.0000000000000D+00
   372  3.7100000000000D+00  0.0000000000000D+00  0.0000000000000D+00
   373  3.7200000000000D+00  0.0000000000000D+00  0.0000000000000D+00
   374  3.7300000000000D+00  0.0000000000000D+00  0.0000000000000D+00
   375  3.7400000000000D+00  0.0000000000000D+00  0.0000000000000D+00
   376  3.7500000000000D+00  0.0000000000000D+00  0.0000000000000D+00
   377  3.7600000000000D+00  0.0000000000000D+00  0.0000000000000D+00
   378  3.7700000000000D+00  0.0000000000000D+00  0.0000000000000D+00
   379  3.7800000000000D+00  0.0000000000000D+00  0.0000000000000D+00
   380  3.7900000000000D+00  0.0000000000000D+00  0.0000000000000D+00
   381  3.8000000000000D+00  0.0000000000000D+00  0.0000000000000D+00
   382  3.8100000000000D+00  0.0000000000000D+00  0.0000000000000D+00
   383  3.8200000000000D+00  0.0000000000000D+00  0.0000000000000D+00
   384  3.8300000000000D+00  0.0000000000000D+00  0.0000000000000D+00
   385  3.8400000000000D+00  0.0000000000000D+00  0.0000000000000D+00
   386  3.8500000000000D+00  0.0000000000000D+00  0.0000000000000D+00
   387  3.8600000000000D+00  0.0000000000000D+00  0.0000000000000D+00
   388  3.8700000000000D+00  0.0000000000000D+00  0.0000000000000D+00
   389  3.8800000000000D+00  0.0000000000000D+00  0.0000000000000D+00
   390  3.8900000000000D+00  0.0000000000000D+00  0.0000000000000D+00
   391  3.9000000000000D+00  0.0000000000000D+00  0.0000000000000D+00
   392  3.9100000000000D+00  0.0000000000000D+00  0.0000000000000D+00
   393  3.9200000000000D+00  0.0000000000000D+00  0.0000000000000D+00
   394  3.9300000000000D+00  0.0000000000000D+00  0.0000000000000D+00
   395  3.9400000000000D+00  0.0000000000000D+00  0.0000000000000D+00
   396  3.9500000000000D+00  0.0000000000000D+00  0.0000000000000D+00
   397  3.9600000000000D+00  0.0000000000000D+00  0.0000000000000D+00
   398  3.9700000000000D+00  0.0000000000000D+00  0.0000000000000D+00
   399  3.9800000000000D+00  0.0000000000000D+00  0.0000000000000D+00
   400  3.9900000000000D+00  0.0000000000000D+00  0.0000000000000D+00
   401  4.0000000000000D+00  0.0000000000000D+00  0.0000000000000D+00
   402  4.0100000000000D+00  0.0000000000000D+00  0.0000000000000D+00
   403  4.0200000000000D+00  0.0000000000000D+00  0.0000000000000D+00
   404  4.0300000000000D+00  0.0000000000000D+00  0.0000000000000D+00
   405  4.0400000000000D+00  0.0000000000000D+00  0.0000000000000D+00
   406  4.0500000000000D+00  0.0000000000000D+00  0.0000000000000D+00
   407  4.0600000000000D+00  0.0000000000000D+00  0.0000000000000D+00
   408  4.0700000000000D+00  0.0000000000000D+00  0.0000000000000D+00
   409  4.0800000000000D+00  0.0000000000000D+00  0.0000000000000D+00
   410  4.0900000000000D+00  0.0000000000000D+00  0.0000000000000D+00
   411  4.1000000000000D+00  0.0000000000000D+00  0.0000000000000D+00
   412  4.1100000000000D+00  0.0000000000000D+00  0.0000000000000D+00
   413  4.1200000000000D+00  0.0000000000000D+00  0.0000000000000D+00
   414  4.1300000000000D+00  0.0000000000000D+00  0.0000000000000D+00
   415  4.1400000000000D+00  0.0000000000000D+00  0.0000000000000D+00
   416  4.1500000000000D+00  0.0000000000000D+00  0.0000000000000D+00
   417  4.1600000000000D+00  0.0000000000000D+00  0.0000000000000D+00
   418  4.1700000000000D+00  0.0000000000000D+00  0.0000000000000D+00
   419  4.1800000000000D+00  0.0000000000000D+00  0.0000000000000D+00
   420  4.1900000000000D+00  0.0000000000000D+00  0.0000000000000D+00
   421  4.2000000000000D+00  0.0000000000000D+00  0.0000000000000D+00
   422  4.2100000000000D+00  0.0000000000000D+00  0.0000000000000D+00