Nd    ONCVPSP-3.3.0  r_core=   2.01081   1.60303   1.87192   1.66143
     60.0000     14.0000      220408    zatom,zion,pspd
     8       2   3     4   600     0    pspcod,pspxc,lmax,lloc,mmax,r2well
  5.99000000  0.00000000  0.00000000    rchrg fchrg qchrg
     2     2     2     2     0    nproj
     1     1           extension_switch
   0                         7.5299844854335D+00  5.4431601069399D-01
     1  0.0000000000000D+00 -1.8008927682445D-12  4.7625695054343D-11
     2  1.0000000000000D-02  3.6874177792760D-02 -1.2756507491697D-02
     3  2.0000000000000D-02  7.3724689503074D-02 -2.5471867601263D-02
     4  3.0000000000000D-02  1.1052785745045D-01 -3.8105136776300D-02
     5  4.0000000000000D-02  1.4725998084109D-01 -5.0615777545451D-02
     6  5.0000000000000D-02  1.8389732441865D-01 -6.2963857625012D-02
     7  6.0000000000000D-02  2.2041610736526D-01 -7.5110244338678D-02
     8  7.0000000000000D-02  2.5679249253835D-01 -8.7016792844419D-02
     9  8.0000000000000D-02  2.9300257613073D-01 -9.8646526710054D-02
    10  9.0000000000000D-02  3.2902237784347D-01 -1.0996380943829D-01
    11  1.0000000000000D-01  3.6482783166386D-01 -1.2093450561186D-01
    12  1.1000000000000D-01  4.0039477734347D-01 -1.3152613040997D-01
    13  1.2000000000000D-01  4.3569895267434D-01 -1.4170798633769D-01
    14  1.3000000000000D-01  4.7071598666508D-01 -1.5145128610971D-01
    15  1.4000000000000D-01  5.0542139372139D-01 -1.6072926073835D-01
    16  1.5000000000000D-01  5.3979056893971D-01 -1.6951725199210D-01
    17  1.6000000000000D-01  5.7379878462551D-01 -1.7779278851463D-01
    18  1.7000000000000D-01  6.0742118815157D-01 -1.8553564502391D-01
    19  1.8000000000000D-01  6.4063280127410D-01 -1.9272788414627D-01
    20  1.9000000000000D-01  6.7340852102796D-01 -1.9935388058014D-01
    21  2.0000000000000D-01  7.0572312232405D-01 -2.0540032742675D-01
    22  2.1000000000000D-01  7.3755126237412D-01 -2.1085622467109D-01
    23  2.2000000000000D-01  7.6886748706932D-01 -2.1571284994252D-01
    24  2.3000000000000D-01  7.9964623943936D-01 -2.1996371183185D-01
    25  2.4000000000000D-01  8.2986187031890D-01 -2.2360448618731D-01
    26  2.5000000000000D-01  8.5948865134635D-01 -2.2663293595603D-01
    27  2.6000000000000D-01  8.8850079041824D-01 -2.2904881527808D-01
    28  2.7000000000000D-01  9.1687244971862D-01 -2.3085375867672D-01
    29  2.8000000000000D-01  9.4457776643871D-01 -2.3205115631946D-01
    30  2.9000000000000D-01  9.7159087629552D-01 -2.3264601644844D-01
    31  3.0000000000000D-01  9.9788593995151D-01 -2.3264481619584D-01
    32  3.1000000000000D-01  1.0234371724280D+00 -2.3205534210754D-01
    33  3.2000000000000D-01  1.0482188755950D+00 -2.3088652179671D-01
    34  3.3000000000000D-01  1.0722054738085D+00 -2.2914824823645D-01
    35  3.4000000000000D-01  1.0953715527516D+00 -2.2685119827651D-01
    36  3.5000000000000D-01  1.1176919015230D+00 -2.2400664703289D-01
    37  3.6000000000000D-01  1.1391415579970D+00 -2.2062627984946D-01
    38  3.7000000000000D-01  1.1596958574620D+00 -2.1672200356737D-01
    39  3.8000000000000D-01  1.1793304845258D+00 -2.1230575886064D-01
    40  3.9000000000000D-01  1.1980215282503D+00 -2.0738933540358D-01
    41  4.0000000000000D-01  1.2157455404604D+00 -2.0198419162848D-01
    42  4.1000000000000D-01  1.2324795971433D+00 -1.9610128080898D-01
    43  4.2000000000000D-01  1.2482013628295D+00 -1.8975088516624D-01
    44  4.3000000000000D-01  1.2628891578206D+00 -1.8294245964157D-01
    45  4.4000000000000D-01  1.2765220281004D+00 -1.7568448691000D-01
    46  4.5000000000000D-01  1.2890798177358D+00 -1.6798434512578D-01
    47  4.6000000000000D-01  1.3005432435445D+00 -1.5984818979235D-01
    48  4.7000000000000D-01  1.3108939717785D+00 -1.5128085103745D-01
    49  4.8000000000000D-01  1.3201146965372D+00 -1.4228574744842D-01
    50  4.9000000000000D-01  1.3281892195977D+00 -1.3286481748583D-01
    51  5.0000000000000D-01  1.3351025313169D+00 -1.2301846934425D-01
    52  5.1000000000000D-01  1.3408408922318D+00 -1.1274554997060D-01
    53  5.2000000000000D-01  1.3453919149525D+00 -1.0204333378281D-01
    54  5.3000000000000D-01  1.3487446459193D+00 -9.0907531455956D-02
    55  5.4000000000000D-01  1.3508896465636D+00 -7.9332318963011D-02
    56  5.5000000000000D-01  1.3518190733922D+00 -6.7310386871150D-02
    57  5.6000000000000D-01  1.3515267564877D+00 -5.4833009706802D-02
    58  5.7000000000000D-01  1.3500082759035D+00 -4.1890135014668D-02
    59  5.8000000000000D-01  1.3472610354086D+00 -2.8470491546779D-02
    60  5.9000000000000D-01  1.3432843330276D+00 -1.4561715834150D-02
    61  6.0000000000000D-01  1.3380794278103D+00 -1.5049621256614D-04
    62  6.1000000000000D-01  1.3316496022575D+00  1.4777266798844D-02
    63  6.2000000000000D-01  1.3240002198282D+00  3.0236285032495D-02
    64  6.3000000000000D-01  1.3151387769554D+00  4.6241693541314D-02
    65  6.4000000000000D-01  1.3050749490052D+00  6.2808849363981D-02
    66  6.5000000000000D-01  1.2938206296239D+00  7.9953119876734D-02
    67  6.6000000000000D-01  1.2813899629373D+00  9.7689662533962D-02
    68  6.7000000000000D-01  1.2677993680859D+00  1.1603319789437D-01
    69  6.8000000000000D-01  1.2530675556108D+00  1.3499777790594D-01
    70  6.9000000000000D-01  1.2372155352354D+00  1.5459655147844D-01
    71  7.0000000000000D-01  1.2202666146284D+00  1.7484152940795D-01
    72  7.1000000000000D-01  1.2022463887785D+00  1.9574335073028D-01
    73  7.2000000000000D-01  1.1831827196599D+00  2.1731105257167D-01
    74  7.3000000000000D-01  1.1631057059243D+00  2.3955184553252D-01
    75  7.4000000000000D-01  1.1420476424141D+00  2.6247089658455D-01
    76  7.5000000000000D-01  1.1200429693586D+00  2.8607112138425D-01
    77  7.6000000000000D-01  1.0971282111831D+00  3.1035298780453D-01
    78  7.7000000000000D-01  1.0733419049347D+00  3.3531433236434D-01
    79  7.8000000000000D-01  1.0487245184097D+00  3.6095019109274D-01
    80  7.9000000000000D-01  1.0233183581415D+00  3.8725264620200D-01
    81  8.0000000000000D-01  9.9716746749876D-01  4.1421068976349D-01
    82  8.1000000000000D-01  9.7031751522250D-01  4.4181010538436D-01
    83  8.2000000000000D-01  9.4281567482052D-01  4.7003336867278D-01
    84  8.3000000000000D-01  9.1471049532276D-01  4.9885956705907D-01
    85  8.4000000000000D-01  8.8605176398722D-01  5.2826433930976D-01
    86  8.5000000000000D-01  8.5689036163099D-01  5.5821983483733D-01
    87  8.6000000000000D-01  8.2727811134259D-01  5.8869469267095D-01
    88  8.7000000000000D-01  7.9726762141145D-01  6.1965403971701D-01
    89  8.8000000000000D-01  7.6691212338411D-01  6.5105950770779D-01
    90  8.9000000000000D-01  7.3626530622655D-01  6.8286926801311D-01
    91  9.0000000000000D-01  7.0538114763472D-01  7.1503808327914D-01
    92  9.1000000000000D-01  6.7431374359082D-01  7.4751737466411D-01
    93  9.2000000000000D-01  6.4311713731009D-01  7.8025530326611D-01
    94  9.3000000000000D-01  6.1184514876041D-01  8.1319686418665D-01
    95  9.4000000000000D-01  5.8055120596485D-01  8.4628399155026D-01
    96  9.5000000000000D-01  5.4928817931296D-01  8.7945567270733D-01
    97  9.6000000000000D-01  5.1810822011128D-01  9.1264806978919D-01
    98  9.7000000000000D-01  4.8706260459459D-01  9.4579464676182D-01
    99  9.8000000000000D-01  4.5620158459687D-01  9.7882630014561D-01
   100  9.9000000000000D-01  4.2557424604599D-01  1.0116714916253D+00
   101  1.0000000000000D+00  3.9522837639423D-01  1.0442563808825D+00
   102  1.0100000000000D+00  3.6521034203153D-01  1.0765049571313D+00
   103  1.0200000000000D+00  3.3556497664828D-01  1.1083391680362D+00
   104  1.0300000000000D+00  3.0633548141867D-01  1.1396790449294D+00
   105  1.0400000000000D+00  2.7756333776380D-01  1.1704428235442D+00
   106  1.0500000000000D+00  2.4928823333038D-01  1.2005470598035D+00
   107  1.0600000000000D+00  2.2154800168440D-01  1.2299067405765D+00
   108  1.0700000000000D+00  1.9437857605910D-01  1.2584353897510D+00
   109  1.0800000000000D+00  1.6781395733991D-01  1.2860451704002D+00
   110  1.0900000000000D+00  1.4188619628337D-01  1.3126469843320D+00
   111  1.1000000000000D+00  1.1662538979104D-01  1.3381505707925D+00
   112  1.1100000000000D+00  9.2059690863079D-02  1.3624646066300D+00
   113  1.1200000000000D+00  6.8215331643926D-02  1.3854968108010D+00
   114  1.1300000000000D+00  4.5116658776311D-02  1.4071540566192D+00
   115  1.1400000000000D+00  2.2786180061189D-02  1.4273424957170D+00
   116  1.1500000000000D+00  1.2446212430142D-03  1.4459676981470D+00
   117  1.1600000000000D+00 -1.9489008515879D-02  1.4629348136787D+00
   118  1.1700000000000D+00 -3.9397344078728D-02  1.4781487597325D+00
   119  1.1800000000000D+00 -5.8464586492292D-02  1.4915144418005D+00
   120  1.1900000000000D+00 -7.6676421837419D-02  1.5029370125892D+00
   121  1.2000000000000D+00 -9.4019938941615D-02  1.5123221764313D+00
   122  1.2100000000000D+00 -1.1048354825085D-01  1.5195765456014D+00
   123  1.2200000000000D+00 -1.2605690425008D-01  1.5246080553222D+00
   124  1.2300000000000D+00 -1.4073083399356D-01  1.5273264442272D+00
   125  1.2400000000000D+00 -1.5449727430864D-01  1.5276438066748D+00
   126  1.2500000000000D+00 -1.6734922028305D-01  1.5254752231646D+00
   127  1.2600000000000D+00 -1.7928068768141D-01  1.5207394745990D+00
   128  1.2700000000000D+00 -1.9028669180589D-01  1.5133598449680D+00
   129  1.2800000000000D+00 -2.0036324527250D-01  1.5032650166068D+00
   130  1.2900000000000D+00 -2.0950737708059D-01  1.4903900610978D+00
   131  1.3000000000000D+00 -2.1771717492477D-01  1.4746775262518D+00
   132  1.3100000000000D+00 -2.2499185268386D-01  1.4560786194974D+00
   133  1.3200000000000D+00 -2.3133184465756D-01  1.4345544855783D+00
   134  1.3300000000000D+00 -2.3673892724368D-01  1.4100775717945D+00
   135  1.3400000000000D+00 -2.4121636910775D-01  1.3826330758684D+00
   136  1.3500000000000D+00 -2.4476910968329D-01  1.3522204648623D+00
   137  1.3600000000000D+00 -2.4740396475986D-01  1.3188550483269D+00
   138  1.3700000000000D+00 -2.4912985897531D-01  1.2825695939558D+00
   139  1.3800000000000D+00 -2.4995808163015D-01  1.2434159569634D+00
   140  1.3900000000000D+00 -2.4990256306033D-01  1.2014666987040D+00
   141  1.4000000000000D+00 -2.4898016809350D-01  1.1568166661866D+00
   142  1.4100000000000D+00 -2.4721099877622D-01  1.1095844833588D+00
   143  1.4200000000000D+00 -2.4461870256921D-01  1.0599139242381D+00
   144  1.4300000000000D+00 -2.4123077517609D-01  1.0079751041596D+00
   145  1.4400000000000D+00 -2.3707884868178D-01  9.5396543289088D-01
   146  1.4500000000000D+00 -2.3219895569451D-01  8.9811027309818D-01
   147  1.4600000000000D+00 -2.2663175046553D-01  8.4066320201785D-01
   148  1.4700000000000D+00 -2.2042267921751D-01  7.8190582703169D-01
   149  1.4800000000000D+00 -2.1362207391738D-01  7.2214702132213D-01
   150  1.4900000000000D+00 -2.0628515497217D-01  6.6172149861659D-01
   151  1.5000000000000D+00 -1.9847191845316D-01  6.0098759963823D-01
   152  1.5100000000000D+00 -1.9024687878093D-01  5.4032414126273D-01
   153  1.5200000000000D+00 -1.8167864781065D-01  4.8012622590569D-01
   154  1.5300000000000D+00 -1.7283930271025D-01  4.2079977568476D-01
   155  1.5400000000000D+00 -1.6380352865798D-01  3.6275471258734D-01
   156  1.5500000000000D+00 -1.5464746945182D-01  3.0639644747709D-01
   157  1.5600000000000D+00 -1.4544728914350D-01  2.5211574134923D-01
   158  1.5700000000000D+00 -1.3627711785223D-01  2.0027475069542D-01
   159  1.5800000000000D+00 -1.2720766195550D-01  1.5119845522010D-01
   160  1.5900000000000D+00 -1.1830344590451D-01  1.0515745239762D-01
   161  1.6000000000000D+00 -1.0961533516693D-01  6.2316457154803D-02
   162  1.6100000000000D+00 -1.0118115391610D-01  2.2743922966149D-02
   163  1.6200000000000D+00 -9.3031733515997D-02 -1.3535849837633D-02
   164  1.6300000000000D+00 -8.5192226571171D-02 -4.6530875101480D-02
   165  1.6400000000000D+00 -7.7683743560301D-02 -7.6269066118679D-02
   166  1.6500000000000D+00 -7.0524016180877D-02 -1.0279257318273D-01
   167  1.6600000000000D+00 -6.3727394675051D-02 -1.2615817876902D-01
   168  1.6700000000000D+00 -5.7305087633591D-02 -1.4643534606196D-01
   169  1.6800000000000D+00 -5.1265011218584D-02 -1.6370746769765D-01
   170  1.6900000000000D+00 -4.5611972846106D-02 -1.7807062340681D-01
   171  1.7000000000000D+00 -4.0347785264446D-02 -1.8963291706388D-01
   172  1.7100000000000D+00 -3.5471389277835D-02 -1.9851380489763D-01
   173  1.7200000000000D+00 -3.0978998252877D-02 -2.0484330607641D-01
   174  1.7300000000000D+00 -2.6864258152181D-02 -2.0876114493384D-01
   175  1.7400000000000D+00 -2.3118420779023D-02 -2.1041583561543D-01
   176  1.7500000000000D+00 -1.9730530142095D-02 -2.0996370947545D-01
   177  1.7600000000000D+00 -1.6687619698499D-02 -2.0756789575961D-01
   178  1.7700000000000D+00 -1.3974919901865D-02 -2.0339725815770D-01
   179  1.7800000000000D+00 -1.1576074056458D-02 -1.9762529662005D-01
   180  1.7900000000000D+00 -9.4733613872921D-03 -1.9042901946889D-01
   181  1.8000000000000D+00 -7.6479256213574D-03 -1.8198779381040D-01
   182  1.8100000000000D+00 -6.0800075514940D-03 -1.7248218137015D-01
   183  1.8200000000000D+00 -4.7491801051991D-03 -1.6209276666741D-01
   184  1.8300000000000D+00 -3.6345841783532D-03 -1.5099898569361D-01
   185  1.8400000000000D+00 -2.7151637365608D-03 -1.3937796207862D-01
   186  1.8500000000000D+00 -1.9698986668354D-03 -1.2740335789705D-01
   187  1.8600000000000D+00 -1.3780334328878D-03 -1.1524424818058D-01
   188  1.8700000000000D+00 -9.1930081073168D-04 -1.0306402259410D-01
   189  1.8800000000000D+00 -5.7413787363015D-04 -9.1019327511874D-02
   190  1.8900000000000D+00 -3.2389447386016D-04 -7.9259047360806D-02
   191  1.9000000000000D+00 -1.5103096467908D-04 -6.7923340500047D-02
   192  1.9100000000000D+00 -3.9305545494822D-05 -5.7142727836935D-02
   193  1.9200000000000D+00  2.6051307236299D-05 -4.7037246104613D-02
   194  1.9300000000000D+00  5.8175998501191D-05 -3.7715668956157D-02
   195  1.9400000000000D+00  6.8425044557713D-05 -2.9274798126438D-02
   196  1.9500000000000D+00  6.6269217264895D-05 -2.1805918004425D-02
   197  1.9600000000000D+00  5.9071933339439D-05 -1.5362676608534D-02
   198  1.9700000000000D+00  5.1631977237831D-05 -9.9783371818331D-03
   199  1.9800000000000D+00  4.8027007173605D-05 -5.7591312873134D-03
   200  1.9900000000000D+00  5.0873473941903D-05 -2.8085846543972D-03
   201  2.0000000000000D+00  5.7394435031944D-05 -1.0753065748673D-03
   202  2.0100000000000D+00  5.6127766938105D-05 -2.4817842902354D-04
   203  2.0200000000000D+00  3.6248264253085D-05  3.2517985659168D-05
   204  2.0300000000000D+00  1.0658884575529D-05  3.4086056024992D-05
   205  2.0400000000000D+00 -4.5887206319031D-06 -1.9837753547970D-05
   206  2.0500000000000D+00 -5.1349842038600D-06 -2.6963776565997D-05
   207  2.0600000000000D+00  1.4047916657575D-07  3.9998794775756D-07
   208  2.0700000000000D+00  1.3394784920165D-06  4.3867512367110D-06
   209  2.0800000000000D+00  6.0229926505121D-07  2.1767623909487D-06
   210  2.0900000000000D+00 -1.1583341471299D-07  4.3996476939107D-07
   211  2.1000000000000D+00 -1.3809304226583D-07  5.2451249620447D-07
   212  2.1100000000000D+00  0.0000000000000D+00  0.0000000000000D+00
   213  2.1200000000000D+00  0.0000000000000D+00  0.0000000000000D+00
   214  2.1300000000000D+00  0.0000000000000D+00  0.0000000000000D+00
   215  2.1400000000000D+00  0.0000000000000D+00  0.0000000000000D+00
   216  2.1500000000000D+00  0.0000000000000D+00  0.0000000000000D+00
   217  2.1600000000000D+00  0.0000000000000D+00  0.0000000000000D+00
   218  2.1700000000000D+00  0.0000000000000D+00  0.0000000000000D+00
   219  2.1800000000000D+00  0.0000000000000D+00  0.0000000000000D+00
   220  2.1900000000000D+00  0.0000000000000D+00  0.0000000000000D+00
   221  2.2000000000000D+00  0.0000000000000D+00  0.0000000000000D+00
   222  2.2100000000000D+00  0.0000000000000D+00  0.0000000000000D+00
   223  2.2200000000000D+00  0.0000000000000D+00  0.0000000000000D+00
   224  2.2300000000000D+00  0.0000000000000D+00  0.0000000000000D+00
   225  2.2400000000000D+00  0.0000000000000D+00  0.0000000000000D+00
   226  2.2500000000000D+00  0.0000000000000D+00  0.0000000000000D+00
   227  2.2600000000000D+00  0.0000000000000D+00  0.0000000000000D+00
   228  2.2700000000000D+00  0.0000000000000D+00  0.0000000000000D+00
   229  2.2800000000000D+00  0.0000000000000D+00  0.0000000000000D+00
   230  2.2900000000000D+00  0.0000000000000D+00  0.0000000000000D+00
   231  2.3000000000000D+00  0.0000000000000D+00  0.0000000000000D+00
   232  2.3100000000000D+00  0.0000000000000D+00  0.0000000000000D+00
   233  2.3200000000000D+00  0.0000000000000D+00  0.0000000000000D+00
   234  2.3300000000000D+00  0.0000000000000D+00  0.0000000000000D+00
   235  2.3400000000000D+00  0.0000000000000D+00  0.0000000000000D+00
   236  2.3500000000000D+00  0.0000000000000D+00  0.0000000000000D+00
   237  2.3600000000000D+00  0.0000000000000D+00  0.0000000000000D+00
   238  2.3700000000000D+00  0.0000000000000D+00  0.0000000000000D+00
   239  2.3800000000000D+00  0.0000000000000D+00  0.0000000000000D+00
   240  2.3900000000000D+00  0.0000000000000D+00  0.0000000000000D+00
   241  2.4000000000000D+00  0.0000000000000D+00  0.0000000000000D+00
   242  2.4100000000000D+00  0.0000000000000D+00  0.0000000000000D+00
   243  2.4200000000000D+00  0.0000000000000D+00  0.0000000000000D+00
   244  2.4300000000000D+00  0.0000000000000D+00  0.0000000000000D+00
   245  2.4400000000000D+00  0.0000000000000D+00  0.0000000000000D+00
   246  2.4500000000000D+00  0.0000000000000D+00  0.0000000000000D+00
   247  2.4600000000000D+00  0.0000000000000D+00  0.0000000000000D+00
   248  2.4700000000000D+00  0.0000000000000D+00  0.0000000000000D+00
   249  2.4800000000000D+00  0.0000000000000D+00  0.0000000000000D+00
   250  2.4900000000000D+00  0.0000000000000D+00  0.0000000000000D+00
   251  2.5000000000000D+00  0.0000000000000D+00  0.0000000000000D+00
   252  2.5100000000000D+00  0.0000000000000D+00  0.0000000000000D+00
   253  2.5200000000000D+00  0.0000000000000D+00  0.0000000000000D+00
   254  2.5300000000000D+00  0.0000000000000D+00  0.0000000000000D+00
   255  2.5400000000000D+00  0.0000000000000D+00  0.0000000000000D+00
   256  2.5500000000000D+00  0.0000000000000D+00  0.0000000000000D+00
   257  2.5600000000000D+00  0.0000000000000D+00  0.0000000000000D+00
   258  2.5700000000000D+00  0.0000000000000D+00  0.0000000000000D+00
   259  2.5800000000000D+00  0.0000000000000D+00  0.0000000000000D+00
   260  2.5900000000000D+00  0.0000000000000D+00  0.0000000000000D+00
   261  2.6000000000000D+00  0.0000000000000D+00  0.0000000000000D+00
   262  2.6100000000000D+00  0.0000000000000D+00  0.0000000000000D+00
   263  2.6200000000000D+00  0.0000000000000D+00  0.0000000000000D+00
   264  2.6300000000000D+00  0.0000000000000D+00  0.0000000000000D+00
   265  2.6400000000000D+00  0.0000000000000D+00  0.0000000000000D+00
   266  2.6500000000000D+00  0.0000000000000D+00  0.0000000000000D+00
   267  2.6600000000000D+00  0.0000000000000D+00  0.0000000000000D+00
   268  2.6700000000000D+00  0.0000000000000D+00  0.0000000000000D+00
   269  2.6800000000000D+00  0.0000000000000D+00  0.0000000000000D+00
   270  2.6900000000000D+00  0.0000000000000D+00  0.0000000000000D+00
   271  2.7000000000000D+00  0.0000000000000D+00  0.0000000000000D+00
   272  2.7100000000000D+00  0.0000000000000D+00  0.0000000000000D+00
   273  2.7200000000000D+00  0.0000000000000D+00  0.0000000000000D+00
   274  2.7300000000000D+00  0.0000000000000D+00  0.0000000000000D+00
   275  2.7400000000000D+00  0.0000000000000D+00  0.0000000000000D+00
   276  2.7500000000000D+00  0.0000000000000D+00  0.0000000000000D+00
   277  2.7600000000000D+00  0.0000000000000D+00  0.0000000000000D+00
   278  2.7700000000000D+00  0.0000000000000D+00  0.0000000000000D+00
   279  2.7800000000000D+00  0.0000000000000D+00  0.0000000000000D+00
   280  2.7900000000000D+00  0.0000000000000D+00  0.0000000000000D+00
   281  2.8000000000000D+00  0.0000000000000D+00  0.0000000000000D+00
   282  2.8100000000000D+00  0.0000000000000D+00  0.0000000000000D+00
   283  2.8200000000000D+00  0.0000000000000D+00  0.0000000000000D+00
   284  2.8300000000000D+00  0.0000000000000D+00  0.0000000000000D+00
   285  2.8400000000000D+00  0.0000000000000D+00  0.0000000000000D+00
   286  2.8500000000000D+00  0.0000000000000D+00  0.0000000000000D+00
   287  2.8600000000000D+00  0.0000000000000D+00  0.0000000000000D+00
   288  2.8700000000000D+00  0.0000000000000D+00  0.0000000000000D+00
   289  2.8800000000000D+00  0.0000000000000D+00  0.0000000000000D+00
   290  2.8900000000000D+00  0.0000000000000D+00  0.0000000000000D+00
   291  2.9000000000000D+00  0.0000000000000D+00  0.0000000000000D+00
   292  2.9100000000000D+00  0.0000000000000D+00  0.0000000000000D+00
   293  2.9200000000000D+00  0.0000000000000D+00  0.0000000000000D+00
   294  2.9300000000000D+00  0.0000000000000D+00  0.0000000000000D+00
   295  2.9400000000000D+00  0.0000000000000D+00  0.0000000000000D+00
   296  2.9500000000000D+00  0.0000000000000D+00  0.0000000000000D+00
   297  2.9600000000000D+00  0.0000000000000D+00  0.0000000000000D+00
   298  2.9700000000000D+00  0.0000000000000D+00  0.0000000000000D+00
   299  2.9800000000000D+00  0.0000000000000D+00  0.0000000000000D+00
   300  2.9900000000000D+00  0.0000000000000D+00  0.0000000000000D+00
   301  3.0000000000000D+00  0.0000000000000D+00  0.0000000000000D+00
   302  3.0100000000000D+00  0.0000000000000D+00  0.0000000000000D+00
   303  3.0200000000000D+00  0.0000000000000D+00  0.0000000000000D+00
   304  3.0300000000000D+00  0.0000000000000D+00  0.0000000000000D+00
   305  3.0400000000000D+00  0.0000000000000D+00  0.0000000000000D+00
   306  3.0500000000000D+00  0.0000000000000D+00  0.0000000000000D+00
   307  3.0600000000000D+00  0.0000000000000D+00  0.0000000000000D+00
   308  3.0700000000000D+00  0.0000000000000D+00  0.0000000000000D+00
   309  3.0800000000000D+00  0.0000000000000D+00  0.0000000000000D+00
   310  3.0900000000000D+00  0.0000000000000D+00  0.0000000000000D+00
   311  3.1000000000000D+00  0.0000000000000D+00  0.0000000000000D+00
   312  3.1100000000000D+00  0.0000000000000D+00  0.0000000000000D+00
   313  3.1200000000000D+00  0.0000000000000D+00  0.0000000000000D+00
   314  3.1300000000000D+00  0.0000000000000D+00  0.0000000000000D+00
   315  3.1400000000000D+00  0.0000000000000D+00  0.0000000000000D+00
   316  3.1500000000000D+00  0.0000000000000D+00  0.0000000000000D+00
   317  3.1600000000000D+00  0.0000000000000D+00  0.0000000000000D+00
   318  3.1700000000000D+00  0.0000000000000D+00  0.0000000000000D+00
   319  3.1800000000000D+00  0.0000000000000D+00  0.0000000000000D+00
   320  3.1900000000000D+00  0.0000000000000D+00  0.0000000000000D+00
   321  3.2000000000000D+00  0.0000000000000D+00  0.0000000000000D+00
   322  3.2100000000000D+00  0.0000000000000D+00  0.0000000000000D+00
   323  3.2200000000000D+00  0.0000000000000D+00  0.0000000000000D+00
   324  3.2300000000000D+00  0.0000000000000D+00  0.0000000000000D+00
   325  3.2400000000000D+00  0.0000000000000D+00  0.0000000000000D+00
   326  3.2500000000000D+00  0.0000000000000D+00  0.0000000000000D+00
   327  3.2600000000000D+00  0.0000000000000D+00  0.0000000000000D+00
   328  3.2700000000000D+00  0.0000000000000D+00  0.0000000000000D+00
   329  3.2800000000000D+00  0.0000000000000D+00  0.0000000000000D+00
   330  3.2900000000000D+00  0.0000000000000D+00  0.0000000000000D+00
   331  3.3000000000000D+00  0.0000000000000D+00  0.0000000000000D+00
   332  3.3100000000000D+00  0.0000000000000D+00  0.0000000000000D+00
   333  3.3200000000000D+00  0.0000000000000D+00  0.0000000000000D+00
   334  3.3300000000000D+00  0.0000000000000D+00  0.0000000000000D+00
   335  3.3400000000000D+00  0.0000000000000D+00  0.0000000000000D+00
   336  3.3500000000000D+00  0.0000000000000D+00  0.0000000000000D+00
   337  3.3600000000000D+00  0.0000000000000D+00  0.0000000000000D+00
   338  3.3700000000000D+00  0.0000000000000D+00  0.0000000000000D+00
   339  3.3800000000000D+00  0.0000000000000D+00  0.0000000000000D+00
   340  3.3900000000000D+00  0.0000000000000D+00  0.0000000000000D+00
   341  3.4000000000000D+00  0.0000000000000D+00  0.0000000000000D+00
   342  3.4100000000000D+00  0.0000000000000D+00  0.0000000000000D+00
   343  3.4200000000000D+00  0.0000000000000D+00  0.0000000000000D+00
   344  3.4300000000000D+00  0.0000000000000D+00  0.0000000000000D+00
   345  3.4400000000000D+00  0.0000000000000D+00  0.0000000000000D+00
   346  3.4500000000000D+00  0.0000000000000D+00  0.0000000000000D+00
   347  3.4600000000000D+00  0.0000000000000D+00  0.0000000000000D+00
   348  3.4700000000000D+00  0.0000000000000D+00  0.0000000000000D+00
   349  3.4800000000000D+00  0.0000000000000D+00  0.0000000000000D+00
   350  3.4900000000000D+00  0.0000000000000D+00  0.0000000000000D+00
   351  3.5000000000000D+00  0.0000000000000D+00  0.0000000000000D+00
   352  3.5100000000000D+00  0.0000000000000D+00  0.0000000000000D+00
   353  3.5200000000000D+00  0.0000000000000D+00  0.0000000000000D+00
   354  3.5300000000000D+00  0.0000000000000D+00  0.0000000000000D+00
   355  3.5400000000000D+00  0.0000000000000D+00  0.0000000000000D+00
   356  3.5500000000000D+00  0.0000000000000D+00  0.0000000000000D+00
   357  3.5600000000000D+00  0.0000000000000D+00  0.0000000000000D+00
   358  3.5700000000000D+00  0.0000000000000D+00  0.0000000000000D+00
   359  3.5800000000000D+00  0.0000000000000D+00  0.0000000000000D+00
   360  3.5900000000000D+00  0.0000000000000D+00  0.0000000000000D+00
   361  3.6000000000000D+00  0.0000000000000D+00  0.0000000000000D+00
   362  3.6100000000000D+00  0.0000000000000D+00  0.0000000000000D+00
   363  3.6200000000000D+00  0.0000000000000D+00  0.0000000000000D+00
   364  3.6300000000000D+00  0.0000000000000D+00  0.0000000000000D+00
   365  3.6400000000000D+00  0.0000000000000D+00  0.0000000000000D+00
   366  3.6500000000000D+00  0.0000000000000D+00  0.0000000000000D+00
   367  3.6600000000000D+00  0.0000000000000D+00  0.0000000000000D+00
   368  3.6700000000000D+00  0.0000000000000D+00  0.0000000000000D+00
   369  3.6800000000000D+00  0.0000000000000D+00  0.0000000000000D+00
   370  3.6900000000000D+00  0.0000000000000D+00  0.0000000000000D+00
   371  3.7000000000000D+00  0.0000000000000D+00  0.0000000000000D+00
   372  3.7100000000000D+00  0.0000000000000D+00  0.0000000000000D+00
   373  3.7200000000000D+00  0.0000000000000D+00  0.0000000000000D+00
   374  3.7300000000000D+00  0.0000000000000D+00  0.0000000000000D+00
   375  3.7400000000000D+00  0.0000000000000D+00  0.0000000000000D+00
   376  3.7500000000000D+00  0.0000000000000D+00  0.0000000000000D+00
   377  3.7600000000000D+00  0.0000000000000D+00  0.0000000000000D+00
   378  3.7700000000000D+00  0.0000000000000D+00  0.0000000000000D+00
   379  3.7800000000000D+00  0.0000000000000D+00  0.0000000000000D+00
   380  3.7900000000000D+00  0.0000000000000D+00  0.0000000000000D+00
   381  3.8000000000000D+00  0.0000000000000D+00  0.0000000000000D+00
   382  3.8100000000000D+00  0.0000000000000D+00  0.0000000000000D+00
   383  3.8200000000000D+00  0.0000000000000D+00  0.0000000000000D+00
   384  3.8300000000000D+00  0.0000000000000D+00  0.0000000000000D+00
   385  3.8400000000000D+00  0.0000000000000D+00  0.0000000000000D+00
   386  3.8500000000000D+00  0.0000000000000D+00  0.0000000000000D+00
   387  3.8600000000000D+00  0.0000000000000D+00  0.0000000000000D+00
   388  3.8700000000000D+00  0.0000000000000D+00  0.0000000000000D+00
   389  3.8800000000000D+00  0.0000000000000D+00  0.0000000000000D+00
   390  3.8900000000000D+00  0.0000000000000D+00  0.0000000000000D+00
   391  3.9000000000000D+00  0.0000000000000D+00  0.0000000000000D+00
   392  3.9100000000000D+00  0.0000000000000D+00  0.0000000000000D+00
   393  3.9200000000000D+00  0.0000000000000D+00  0.0000000000000D+00
   394  3.9300000000000D+00  0.0000000000000D+00  0.0000000000000D+00
   395  3.9400000000000D+00  0.0000000000000D+00  0.0000000000000D+00
   396  3.9500000000000D+00  0.0000000000000D+00  0.0000000000000D+00
   397  3.9600000000000D+00  0.0000000000000D+00  0.0000000000000D+00
   398  3.9700000000000D+00  0.0000000000000D+00  0.0000000000000D+00
   399  3.9800000000000D+00  0.0000000000000D+00  0.0000000000000D+00
   400  3.9900000000000D+00  0.0000000000000D+00  0.0000000000000D+00
   401  4.0000000000000D+00  0.0000000000000D+00  0.0000000000000D+00
   402  4.0100000000000D+00  0.0000000000000D+00  0.0000000000000D+00
   403  4.0200000000000D+00  0.0000000000000D+00  0.0000000000000D+00
   404  4.0300000000000D+00  0.0000000000000D+00  0.0000000000000D+00
   405  4.0400000000000D+00  0.0000000000000D+00  0.0000000000000D+00
   406  4.0500000000000D+00  0.0000000000000D+00  0.0000000000000D+00
   407  4.0600000000000D+00  0.0000000000000D+00  0.0000000000000D+00
   408  4.0700000000000D+00  0.0000000000000D+00  0.0000000000000D+00
   409  4.0800000000000D+00  0.0000000000000D+00  0.0000000000000D+00
   410  4.0900000000000D+00  0.0000000000000D+00  0.0000000000000D+00
   411  4.1000000000000D+00  0.0000000000000D+00  0.0000000000000D+00
   412  4.1100000000000D+00  0.0000000000000D+00  0.0000000000000D+00
   413  4.1200000000000D+00  0.0000000000000D+00  0.0000000000000D+00
   414  4.1300000000000D+00  0.0000000000000D+00  0.0000000000000D+00
   415  4.1400000000000D+00  0.0000000000000D+00  0.0000000000000D+00
   416  4.1500000000000D+00  0.0000000000000D+00  0.0000000000000D+00
   417  4.1600000000000D+00  0.0000000000000D+00  0.0000000000000D+00
   418  4.1700000000000D+00  0.0000000000000D+00  0.0000000000000D+00
   419  4.1800000000000D+00  0.0000000000000D+00  0.0000000000000D+00
   420  4.1900000000000D+00  0.0000000000000D+00  0.0000000000000D+00
   421  4.2000000000000D+00  0.0000000000000D+00  0.0000000000000D+00
   422  4.2100000000000D+00  0.0000000000000D+00  0.0000000000000D+00