Ce    ONCVPSP-3.3.0  r_core=   2.00703   1.60001   1.86840   1.65831
     58.0000     12.0000      220408    zatom,zion,pspd
     8       2   3     4   600     0    pspcod,pspxc,lmax,lloc,mmax,r2well
  5.99000000  0.00000000  0.00000000    rchrg fchrg qchrg
     2     2     2     2     0    nproj
     1     1           extension_switch
   0                         7.1190852549580D+00  6.1733395168321D-01
     1  0.0000000000000D+00 -1.5767054328819D-11  1.0932554861398D-10
     2  1.0000000000000D-02  3.2819139266560D-02 -1.3264789218899D-02
     3  2.0000000000000D-02  6.5616872397946D-02 -2.6462110456021D-02
     4  3.0000000000000D-02  9.8371832504392D-02 -3.9524984186394D-02
     5  4.0000000000000D-02  1.3106273077228D-01 -5.2387403954905D-02
     6  5.0000000000000D-02  1.6366839446959D-01 -6.4984813329560D-02
     7  6.0000000000000D-02  1.9616780372328D-01 -7.7254571434308D-02
     8  7.0000000000000D-02  2.2854012667813D-01 -8.9136403383291D-02
     9  8.0000000000000D-02  2.6076475266168D-01 -1.0057283204773D-01
    10  9.0000000000000D-02  2.9282132300019D-01 -1.1150958772198D-01
    11  1.0000000000000D-01  3.2468975915289D-01 -1.2189599241584D-01
    12  1.1000000000000D-01  3.5635028785872D-01 -1.3168531568494D-01
    13  1.2000000000000D-01  3.8778346301921D-01 -1.4083509911877D-01
    14  1.3000000000000D-01  4.1897018407401D-01 -1.4930744683552D-01
    15  1.4000000000000D-01  4.4989171066085D-01 -1.5706927958260D-01
    16  1.5000000000000D-01  4.8052967338955D-01 -1.6409255030998D-01
    17  1.6000000000000D-01  5.1086608060013D-01 -1.7035441936925D-01
    18  1.7000000000000D-01  5.4088332101658D-01 -1.7583738779122D-01
    19  1.8000000000000D-01  5.7056416225153D-01 -1.8052938740893D-01
    20  1.9000000000000D-01  5.9989174516189D-01 -1.8442382691717D-01
    21  2.0000000000000D-01  6.2884957410080D-01 -1.8751959329325D-01
    22  2.1000000000000D-01  6.5742150315719D-01 -1.8982100834378D-01
    23  2.2000000000000D-01  6.8559171852060D-01 -1.9133774048665D-01
    24  2.3000000000000D-01  7.1334471715425D-01 -1.9208467222367D-01
    25  2.4000000000000D-01  7.4066528200445D-01 -1.9208172410506D-01
    26  2.5000000000000D-01  7.6753845401848D-01 -1.9135363632984D-01
    27  2.6000000000000D-01  7.9394950128503D-01 -1.8992970946365D-01
    28  2.7000000000000D-01  8.1988388565200D-01 -1.8784350608479D-01
    29  2.8000000000000D-01  8.4532722721442D-01 -1.8513251548838D-01
    30  2.9000000000000D-01  8.7026526710038D-01 -1.8183778388508D-01
    31  3.0000000000000D-01  8.9468382901540D-01 -1.7800351282139D-01
    32  3.1000000000000D-01  9.1856878003438D-01 -1.7367662882268D-01
    33  3.2000000000000D-01  9.4190599115500D-01 -1.6890632751331D-01
    34  3.3000000000000D-01  9.6468129814771D-01 -1.6374359570079D-01
    35  3.4000000000000D-01  9.8688046325356D-01 -1.5824071511831D-01
    36  3.5000000000000D-01  1.0084891382931D+00 -1.5245075170283D-01
    37  3.6000000000000D-01  1.0294928297562D+00 -1.4642703444000D-01
    38  3.7000000000000D-01  1.0498768664444D+00 -1.4022262793325D-01
    39  3.8000000000000D-01  1.0696263702341D+00 -1.3388980294944D-01
    40  3.9000000000000D-01  1.0887262305190D+00 -1.2747950925633D-01
    41  4.0000000000000D-01  1.1071610828765D+00 -1.2104085509891D-01
    42  4.1000000000000D-01  1.1249152924822D+00 -1.1462059765772D-01
    43  4.2000000000000D-01  1.1419729427705D+00 -1.0826264879682D-01
    44  4.3000000000000D-01  1.1583178298086D+00 -1.0200760033725D-01
    45  4.4000000000000D-01  1.1739334628151D+00 -9.5892272987562D-02
    46  4.5000000000000D-01  1.1888030712090D+00 -8.9949292923320D-02
    47  4.6000000000000D-01  1.2029096185339D+00 -8.4206699835632D-02
    48  4.7000000000000D-01  1.2162358235430D+00 -7.8687590062735D-02
    49  4.8000000000000D-01  1.2287641886807D+00 -7.3409798183162D-02
    50  4.9000000000000D-01  1.2404770361309D+00 -6.8385620180845D-02
    51  5.0000000000000D-01  1.2513565515402D+00 -6.3621580997873D-02
    52  5.1000000000000D-01  1.2613848354561D+00 -5.9118248968034D-02
    53  5.2000000000000D-01  1.2705439624493D+00 -5.4870099277502D-02
    54  5.3000000000000D-01  1.2788160478161D+00 -5.0865428230407D-02
    55  5.4000000000000D-01  1.2861833216830D+00 -4.7086319708394D-02
    56  5.5000000000000D-01  1.2926282102590D+00 -4.3508664808665D-02
    57  5.6000000000000D-01  1.2981334239061D+00 -4.0102235226126D-02
    58  5.7000000000000D-01  1.3026820516217D+00 -3.6830810517601D-02
    59  5.8000000000000D-01  1.3062576614519D+00 -3.3652358948969D-02
    60  5.9000000000000D-01  1.3088444062824D+00 -3.0519271189786D-02
    61  6.0000000000000D-01  1.3104271343811D+00 -2.7378645679084D-02
    62  6.1000000000000D-01  1.3109915040023D+00 -2.4172624055095D-02
    63  6.2000000000000D-01  1.3105241012934D+00 -2.0838774613110D-02
    64  6.3000000000000D-01  1.3090125606930D+00 -1.7310521343860D-02
    65  6.4000000000000D-01  1.3064456869499D+00 -1.3517615705899D-02
    66  6.5000000000000D-01  1.3028135778479D+00 -9.3866479065240D-03
    67  6.6000000000000D-01  1.2981077466805D+00 -4.8415941113110D-03
    68  6.7000000000000D-01  1.2923212434866D+00  1.9560432671162D-04
    69  6.8000000000000D-01  1.2854487740318D+00  5.8044338261120D-03
    70  6.9000000000000D-01  1.2774868155045D+00  1.2065178196357D-02
    71  7.0000000000000D-01  1.2684337278885D+00  1.9058269618840D-02
    72  7.1000000000000D-01  1.2582898599749D+00  2.6863625880962D-02
    73  7.2000000000000D-01  1.2470576489875D+00  3.5559978903181D-02
    74  7.3000000000000D-01  1.2347417128181D+00  4.5224199704142D-02
    75  7.4000000000000D-01  1.2213489338997D+00  5.5930625009685D-02
    76  7.5000000000000D-01  1.2068885337856D+00  6.7750390725976D-02
    77  7.6000000000000D-01  1.1913721375579D+00  8.0750777464418D-02
    78  7.7000000000000D-01  1.1748138272460D+00  9.4994573226730D-02
    79  7.8000000000000D-01  1.1572301835120D+00  1.1053945823160D-01
    80  7.9000000000000D-01  1.1386403149364D+00  1.2743741669221D-01
    81  8.0000000000000D-01  1.1190658743315D+00  1.4573418013541D-01
    82  8.1000000000000D-01  1.0985310616029D+00  1.6546870659257D-01
    83  8.2000000000000D-01  1.0770626127903D+00  1.8667269968904D-01
    84  8.3000000000000D-01  1.0546897750254D+00  2.0937017131890D-01
    85  8.4000000000000D-01  1.0314442672678D+00  2.3357705121476D-01
    86  8.5000000000000D-01  1.0073602267972D+00  2.5930084631460D-01
    87  8.6000000000000D-01  9.8247414157058D-01  2.8654035239258D-01
    88  8.7000000000000D-01  9.5682476867937D-01  3.1528541996158D-01
    89  8.8000000000000D-01  9.3045303927011D-01  3.4551677597973D-01
    90  8.9000000000000D-01  9.0340195042404D-01  3.7720590240338D-01
    91  9.0000000000000D-01  8.7571644461582D-01  4.1031497213276D-01
    92  9.1000000000000D-01  8.4744327749694D-01  4.4479684239912D-01
    93  9.2000000000000D-01  8.1863087486834D-01  4.8059510514888D-01
    94  9.3000000000000D-01  7.8932917981988D-01  5.1764419349805D-01
    95  9.4000000000000D-01  7.5958949111934D-01  5.5586954286475D-01
    96  9.5000000000000D-01  7.2946429402965D-01  5.9518780494568D-01
    97  9.6000000000000D-01  6.9900708481791D-01  6.3550711228851D-01
    98  9.7000000000000D-01  6.6827219029270D-01  6.7672739083454D-01
    99  9.8000000000000D-01  6.3731458376516D-01  7.1874071746816D-01
   100  9.9000000000000D-01  6.0618969887375D-01  7.6143171931579D-01
   101  1.0000000000000D+00  5.7495324274043D-01  8.0467801130084D-01
   102  1.0100000000000D+00  5.4366100993792D-01  8.4835066826867D-01
   103  1.0200000000000D+00  5.1236869874032D-01  8.9231472787064D-01
   104  1.0300000000000D+00  4.8113173110421D-01  9.3642972033065D-01
   105  1.0400000000000D+00  4.5000507778303D-01  9.8055022121342D-01
   106  1.0500000000000D+00  4.1904308991100D-01  1.0245264233828D+00
   107  1.0600000000000D+00  3.8829933831338D-01  1.0682047244597D+00
   108  1.0700000000000D+00  3.5782646169474D-01  1.1114283262856D+00
   109  1.0800000000000D+00  3.2767602473225D-01  1.1540378431628D+00
   110  1.0900000000000D+00  2.9789838696541D-01  1.1958719159525D+00
   111  1.1000000000000D+00  2.6854258320183D-01  1.2367678295237D+00
   112  1.1100000000000D+00  2.3965621601056D-01  1.2765621314095D+00
   113  1.1200000000000D+00  2.1128536065751D-01  1.3150912500795D+00
   114  1.1300000000000D+00  1.8347448264937D-01  1.3521921117165D+00
   115  1.1400000000000D+00  1.5626636782299D-01  1.3877027549843D+00
   116  1.1500000000000D+00  1.2970206472479D-01  1.4214629437654D+00
   117  1.1600000000000D+00  1.0382083877116D-01  1.4533147785045D+00
   118  1.1700000000000D+00  7.8660137451228D-02  1.4831033073800D+00
   119  1.1800000000000D+00  5.4255565584799D-02  1.5106771391298D+00
   120  1.1900000000000D+00  3.0640869491940D-02  1.5358890597493D+00
   121  1.2000000000000D+00  7.8479286130779D-03  1.5585966560253D+00
   122  1.2100000000000D+00 -1.4093247044707D-02  1.5786629491931D+00
   123  1.2200000000000D+00 -3.5154515442248D-02  1.5959570423604D+00
   124  1.2300000000000D+00 -5.5309599012796D-02  1.6103547856999D+00
   125  1.2400000000000D+00 -7.4534081318912D-02  1.6217394636343D+00
   126  1.2500000000000D+00 -9.2805406102256D-02  1.6300025080881D+00
   127  1.2600000000000D+00 -1.1010288107905D-01  1.6350442421083D+00
   128  1.2700000000000D+00 -1.2640768892426D-01  1.6367746577018D+00
   129  1.2800000000000D+00 -1.4170290777391D-01  1.6351142309652D+00
   130  1.2900000000000D+00 -1.5597354369427D-01  1.6299947779284D+00
   131  1.3000000000000D+00 -1.6920657733842D-01  1.6213603525617D+00
   132  1.3100000000000D+00 -1.8139102675812D-01  1.6091681872140D+00
   133  1.3200000000000D+00 -1.9251802849893D-01  1.5933896762270D+00
   134  1.3300000000000D+00 -2.0258093827092D-01  1.5740113988933D+00
   135  1.3400000000000D+00 -2.1157545234223D-01  1.5510361774489D+00
   136  1.3500000000000D+00 -2.1949975077182D-01  1.5244841652273D+00
   137  1.3600000000000D+00 -2.2635466189957D-01  1.4943939520801D+00
   138  1.3700000000000D+00 -2.3214384815659D-01  1.4608236772673D+00
   139  1.3800000000000D+00 -2.3687401199945D-01  1.4238521338559D+00
   140  1.3900000000000D+00 -2.4055511855210D-01  1.3835798390001D+00
   141  1.4000000000000D+00 -2.4320063401288D-01  1.3401300552407D+00
   142  1.4100000000000D+00 -2.4482777328781D-01  1.2936497232039D+00
   143  1.4200000000000D+00 -2.4545775240492D-01  1.2443102755290D+00
   144  1.4300000000000D+00 -2.4511603983766D-01  1.1923082952133D+00
   145  1.4400000000000D+00 -2.4383259470576D-01  1.1378659555155D+00
   146  1.4500000000000D+00 -2.4164208731660D-01  1.0812312102745D+00
   147  1.4600000000000D+00 -2.3858408419771D-01  1.0226776470017D+00
   148  1.4700000000000D+00 -2.3470318771947D-01  9.6250394890965D-01
   149  1.4800000000000D+00 -2.3004911340709D-01  9.0103288222446D-01
   150  1.4900000000000D+00 -2.2467668280200D-01  8.3860970359518D-01
   151  1.5000000000000D+00 -2.1864571908335D-01  7.7559992109471D-01
   152  1.5100000000000D+00 -2.1202080875830D-01  7.1238624301695D-01
   153  1.5200000000000D+00 -2.0487091815993D-01  6.4936465424946D-01
   154  1.5300000000000D+00 -1.9726881898540D-01  5.8693941680770D-01
   155  1.5400000000000D+00 -1.8929030185084D-01  5.2551689376648D-01
   156  1.5500000000000D+00 -1.8101311593340D-01  4.6549787326051D-01
   157  1.5600000000000D+00 -1.7251570566379D-01  4.0726901584776D-01
   158  1.5700000000000D+00 -1.6387528010418D-01  3.5119024907830D-01
   159  1.5800000000000D+00 -1.5516643054709D-01  2.9758659112474D-01
   160  1.5900000000000D+00 -1.4645791444338D-01  2.4672872900485D-01
   161  1.6000000000000D+00 -1.3780841641569D-01  1.9880590820969D-01
   162  1.6100000000000D+00 -1.2926750854822D-01  1.5393918439970D-01
   163  1.6200000000000D+00 -1.2087584693376D-01  1.1219003441122D-01
   164  1.6300000000000D+00 -1.1266815018935D-01  7.3583359808877D-02
   165  1.6400000000000D+00 -1.0467694331566D-01  3.8136944296643D-02
   166  1.6500000000000D+00 -9.6931172392660D-02  5.8515380460832D-03
   167  1.6600000000000D+00 -8.9455959867055D-02 -2.3291384446716D-02
   168  1.6700000000000D+00 -8.2273041895122D-02 -4.9325707755535D-02
   169  1.6800000000000D+00 -7.5400585618593D-02 -7.2302031098785D-02
   170  1.6900000000000D+00 -6.8853333082641D-02 -9.2286499658021D-02
   171  1.7000000000000D+00 -6.2642662779450D-02 -1.0936033832050D-01
   172  1.7100000000000D+00 -5.6776691771112D-02 -1.2361914016350D-01
   173  1.7200000000000D+00 -5.1260397523096D-02 -1.3517206334973D-01
   174  1.7300000000000D+00 -4.6095760224741D-02 -1.4414093306147D-01
   175  1.7400000000000D+00 -4.1281922477871D-02 -1.5065926379442D-01
   176  1.7500000000000D+00 -3.6815366951045D-02 -1.5487119951610D-01
   177  1.7600000000000D+00 -3.2690108574690D-02 -1.5693038844421D-01
   178  1.7700000000000D+00 -2.8897901664512D-02 -1.5699879099528D-01
   179  1.7800000000000D+00 -2.5428458435861D-02 -1.5524543814340D-01
   180  1.7900000000000D+00 -2.2269678870729D-02 -1.5184514083122D-01
   181  1.8000000000000D+00 -1.9407888706565D-02 -1.4697716613829D-01
   182  1.8100000000000D+00 -1.6828084719017D-02 -1.4082388467110D-01
   183  1.8200000000000D+00 -1.4514184748302D-02 -1.3356940157129D-01
   184  1.8300000000000D+00 -1.2449280790089D-02 -1.2539817968593D-01
   185  1.8400000000000D+00 -1.0615893230560D-02 -1.1649366426973D-01
   186  1.8500000000000D+00 -8.9962240412543D-03 -1.0703692012074D-01
   187  1.8600000000000D+00 -7.5724072438727D-03 -9.7205289478450D-02
   188  1.8700000000000D+00 -6.3267546372929D-03 -8.7171080576258D-02
   189  1.8800000000000D+00 -5.2419945886865D-03 -7.7100297783086D-02
   190  1.8900000000000D+00 -4.3015030432172D-03 -6.7151417367089D-02
   191  1.9000000000000D+00 -3.4895231603641D-03 -5.7474226769230D-02
   192  1.9100000000000D+00 -2.7913746363319D-03 -4.8208721945120D-02
   193  1.9200000000000D+00 -2.1936477229424D-03 -3.9484087565753D-02
   194  1.9300000000000D+00 -1.6843839823304D-03 -3.1417749825234D-02
   195  1.9400000000000D+00 -1.2533784326840D-03 -2.4117440788923D-02
   196  1.9500000000000D+00 -8.9195521406585D-04 -1.7672659190933D-02
   197  1.9600000000000D+00 -5.9281648314404D-04 -1.2147674513035D-02
   198  1.9700000000000D+00 -3.5084069151026D-04 -7.5850144947643D-03
   199  1.9800000000000D+00 -1.6634036635116D-04 -4.1245474348395D-03
   200  1.9900000000000D+00 -3.8955611981625D-05 -1.8443388076981D-03
   201  2.0000000000000D+00  3.2339693098423D-05 -5.8889209953887D-04
   202  2.0100000000000D+00  5.1525181545479D-05 -5.6642216747744D-05
   203  2.0200000000000D+00  3.1978446643355D-05  6.4416458827178D-05
   204  2.0300000000000D+00  2.7965278494674D-06  8.6737730228745D-06
   205  2.0400000000000D+00 -8.0217534433250D-06 -2.9622317736273D-05
   206  2.0500000000000D+00 -4.5546758473255D-06 -1.8783143492630D-05
   207  2.0600000000000D+00  1.0718840144965D-06  2.8582413916897D-06
   208  2.0700000000000D+00  1.5948004917964D-06  4.6368561691372D-06
   209  2.0800000000000D+00  2.9513193853736D-08  9.1351944319237D-08
   210  2.0900000000000D+00 -1.4208840740902D-07  4.4616955009345D-07
   211  2.1000000000000D+00 -8.3094459456865D-08  2.6092359163689D-07
   212  2.1100000000000D+00  0.0000000000000D+00  0.0000000000000D+00
   213  2.1200000000000D+00  0.0000000000000D+00  0.0000000000000D+00
   214  2.1300000000000D+00  0.0000000000000D+00  0.0000000000000D+00
   215  2.1400000000000D+00  0.0000000000000D+00  0.0000000000000D+00
   216  2.1500000000000D+00  0.0000000000000D+00  0.0000000000000D+00
   217  2.1600000000000D+00  0.0000000000000D+00  0.0000000000000D+00
   218  2.1700000000000D+00  0.0000000000000D+00  0.0000000000000D+00
   219  2.1800000000000D+00  0.0000000000000D+00  0.0000000000000D+00
   220  2.1900000000000D+00  0.0000000000000D+00  0.0000000000000D+00
   221  2.2000000000000D+00  0.0000000000000D+00  0.0000000000000D+00
   222  2.2100000000000D+00  0.0000000000000D+00  0.0000000000000D+00
   223  2.2200000000000D+00  0.0000000000000D+00  0.0000000000000D+00
   224  2.2300000000000D+00  0.0000000000000D+00  0.0000000000000D+00
   225  2.2400000000000D+00  0.0000000000000D+00  0.0000000000000D+00
   226  2.2500000000000D+00  0.0000000000000D+00  0.0000000000000D+00
   227  2.2600000000000D+00  0.0000000000000D+00  0.0000000000000D+00
   228  2.2700000000000D+00  0.0000000000000D+00  0.0000000000000D+00
   229  2.2800000000000D+00  0.0000000000000D+00  0.0000000000000D+00
   230  2.2900000000000D+00  0.0000000000000D+00  0.0000000000000D+00
   231  2.3000000000000D+00  0.0000000000000D+00  0.0000000000000D+00
   232  2.3100000000000D+00  0.0000000000000D+00  0.0000000000000D+00
   233  2.3200000000000D+00  0.0000000000000D+00  0.0000000000000D+00
   234  2.3300000000000D+00  0.0000000000000D+00  0.0000000000000D+00
   235  2.3400000000000D+00  0.0000000000000D+00  0.0000000000000D+00
   236  2.3500000000000D+00  0.0000000000000D+00  0.0000000000000D+00
   237  2.3600000000000D+00  0.0000000000000D+00  0.0000000000000D+00
   238  2.3700000000000D+00  0.0000000000000D+00  0.0000000000000D+00
   239  2.3800000000000D+00  0.0000000000000D+00  0.0000000000000D+00
   240  2.3900000000000D+00  0.0000000000000D+00  0.0000000000000D+00
   241  2.4000000000000D+00  0.0000000000000D+00  0.0000000000000D+00
   242  2.4100000000000D+00  0.0000000000000D+00  0.0000000000000D+00
   243  2.4200000000000D+00  0.0000000000000D+00  0.0000000000000D+00
   244  2.4300000000000D+00  0.0000000000000D+00  0.0000000000000D+00
   245  2.4400000000000D+00  0.0000000000000D+00  0.0000000000000D+00
   246  2.4500000000000D+00  0.0000000000000D+00  0.0000000000000D+00
   247  2.4600000000000D+00  0.0000000000000D+00  0.0000000000000D+00
   248  2.4700000000000D+00  0.0000000000000D+00  0.0000000000000D+00
   249  2.4800000000000D+00  0.0000000000000D+00  0.0000000000000D+00
   250  2.4900000000000D+00  0.0000000000000D+00  0.0000000000000D+00
   251  2.5000000000000D+00  0.0000000000000D+00  0.0000000000000D+00
   252  2.5100000000000D+00  0.0000000000000D+00  0.0000000000000D+00
   253  2.5200000000000D+00  0.0000000000000D+00  0.0000000000000D+00
   254  2.5300000000000D+00  0.0000000000000D+00  0.0000000000000D+00
   255  2.5400000000000D+00  0.0000000000000D+00  0.0000000000000D+00
   256  2.5500000000000D+00  0.0000000000000D+00  0.0000000000000D+00
   257  2.5600000000000D+00  0.0000000000000D+00  0.0000000000000D+00
   258  2.5700000000000D+00  0.0000000000000D+00  0.0000000000000D+00
   259  2.5800000000000D+00  0.0000000000000D+00  0.0000000000000D+00
   260  2.5900000000000D+00  0.0000000000000D+00  0.0000000000000D+00
   261  2.6000000000000D+00  0.0000000000000D+00  0.0000000000000D+00
   262  2.6100000000000D+00  0.0000000000000D+00  0.0000000000000D+00
   263  2.6200000000000D+00  0.0000000000000D+00  0.0000000000000D+00
   264  2.6300000000000D+00  0.0000000000000D+00  0.0000000000000D+00
   265  2.6400000000000D+00  0.0000000000000D+00  0.0000000000000D+00
   266  2.6500000000000D+00  0.0000000000000D+00  0.0000000000000D+00
   267  2.6600000000000D+00  0.0000000000000D+00  0.0000000000000D+00
   268  2.6700000000000D+00  0.0000000000000D+00  0.0000000000000D+00
   269  2.6800000000000D+00  0.0000000000000D+00  0.0000000000000D+00
   270  2.6900000000000D+00  0.0000000000000D+00  0.0000000000000D+00
   271  2.7000000000000D+00  0.0000000000000D+00  0.0000000000000D+00
   272  2.7100000000000D+00  0.0000000000000D+00  0.0000000000000D+00
   273  2.7200000000000D+00  0.0000000000000D+00  0.0000000000000D+00
   274  2.7300000000000D+00  0.0000000000000D+00  0.0000000000000D+00
   275  2.7400000000000D+00  0.0000000000000D+00  0.0000000000000D+00
   276  2.7500000000000D+00  0.0000000000000D+00  0.0000000000000D+00
   277  2.7600000000000D+00  0.0000000000000D+00  0.0000000000000D+00
   278  2.7700000000000D+00  0.0000000000000D+00  0.0000000000000D+00
   279  2.7800000000000D+00  0.0000000000000D+00  0.0000000000000D+00
   280  2.7900000000000D+00  0.0000000000000D+00  0.0000000000000D+00
   281  2.8000000000000D+00  0.0000000000000D+00  0.0000000000000D+00
   282  2.8100000000000D+00  0.0000000000000D+00  0.0000000000000D+00
   283  2.8200000000000D+00  0.0000000000000D+00  0.0000000000000D+00
   284  2.8300000000000D+00  0.0000000000000D+00  0.0000000000000D+00
   285  2.8400000000000D+00  0.0000000000000D+00  0.0000000000000D+00
   286  2.8500000000000D+00  0.0000000000000D+00  0.0000000000000D+00
   287  2.8600000000000D+00  0.0000000000000D+00  0.0000000000000D+00
   288  2.8700000000000D+00  0.0000000000000D+00  0.0000000000000D+00
   289  2.8800000000000D+00  0.0000000000000D+00  0.0000000000000D+00
   290  2.8900000000000D+00  0.0000000000000D+00  0.0000000000000D+00
   291  2.9000000000000D+00  0.0000000000000D+00  0.0000000000000D+00
   292  2.9100000000000D+00  0.0000000000000D+00  0.0000000000000D+00
   293  2.9200000000000D+00  0.0000000000000D+00  0.0000000000000D+00
   294  2.9300000000000D+00  0.0000000000000D+00  0.0000000000000D+00
   295  2.9400000000000D+00  0.0000000000000D+00  0.0000000000000D+00
   296  2.9500000000000D+00  0.0000000000000D+00  0.0000000000000D+00
   297  2.9600000000000D+00  0.0000000000000D+00  0.0000000000000D+00
   298  2.9700000000000D+00  0.0000000000000D+00  0.0000000000000D+00
   299  2.9800000000000D+00  0.0000000000000D+00  0.0000000000000D+00
   300  2.9900000000000D+00  0.0000000000000D+00  0.0000000000000D+00
   301  3.0000000000000D+00  0.0000000000000D+00  0.0000000000000D+00
   302  3.0100000000000D+00  0.0000000000000D+00  0.0000000000000D+00
   303  3.0200000000000D+00  0.0000000000000D+00  0.0000000000000D+00
   304  3.0300000000000D+00  0.0000000000000D+00  0.0000000000000D+00
   305  3.0400000000000D+00  0.0000000000000D+00  0.0000000000000D+00
   306  3.0500000000000D+00  0.0000000000000D+00  0.0000000000000D+00
   307  3.0600000000000D+00  0.0000000000000D+00  0.0000000000000D+00
   308  3.0700000000000D+00  0.0000000000000D+00  0.0000000000000D+00
   309  3.0800000000000D+00  0.0000000000000D+00  0.0000000000000D+00
   310  3.0900000000000D+00  0.0000000000000D+00  0.0000000000000D+00
   311  3.1000000000000D+00  0.0000000000000D+00  0.0000000000000D+00
   312  3.1100000000000D+00  0.0000000000000D+00  0.0000000000000D+00
   313  3.1200000000000D+00  0.0000000000000D+00  0.0000000000000D+00
   314  3.1300000000000D+00  0.0000000000000D+00  0.0000000000000D+00
   315  3.1400000000000D+00  0.0000000000000D+00  0.0000000000000D+00
   316  3.1500000000000D+00  0.0000000000000D+00  0.0000000000000D+00
   317  3.1600000000000D+00  0.0000000000000D+00  0.0000000000000D+00
   318  3.1700000000000D+00  0.0000000000000D+00  0.0000000000000D+00
   319  3.1800000000000D+00  0.0000000000000D+00  0.0000000000000D+00
   320  3.1900000000000D+00  0.0000000000000D+00  0.0000000000000D+00
   321  3.2000000000000D+00  0.0000000000000D+00  0.0000000000000D+00
   322  3.2100000000000D+00  0.0000000000000D+00  0.0000000000000D+00
   323  3.2200000000000D+00  0.0000000000000D+00  0.0000000000000D+00
   324  3.2300000000000D+00  0.0000000000000D+00  0.0000000000000D+00
   325  3.2400000000000D+00  0.0000000000000D+00  0.0000000000000D+00
   326  3.2500000000000D+00  0.0000000000000D+00  0.0000000000000D+00
   327  3.2600000000000D+00  0.0000000000000D+00  0.0000000000000D+00
   328  3.2700000000000D+00  0.0000000000000D+00  0.0000000000000D+00
   329  3.2800000000000D+00  0.0000000000000D+00  0.0000000000000D+00
   330  3.2900000000000D+00  0.0000000000000D+00  0.0000000000000D+00
   331  3.3000000000000D+00  0.0000000000000D+00  0.0000000000000D+00
   332  3.3100000000000D+00  0.0000000000000D+00  0.0000000000000D+00
   333  3.3200000000000D+00  0.0000000000000D+00  0.0000000000000D+00
   334  3.3300000000000D+00  0.0000000000000D+00  0.0000000000000D+00
   335  3.3400000000000D+00  0.0000000000000D+00  0.0000000000000D+00
   336  3.3500000000000D+00  0.0000000000000D+00  0.0000000000000D+00
   337  3.3600000000000D+00  0.0000000000000D+00  0.0000000000000D+00
   338  3.3700000000000D+00  0.0000000000000D+00  0.0000000000000D+00
   339  3.3800000000000D+00  0.0000000000000D+00  0.0000000000000D+00
   340  3.3900000000000D+00  0.0000000000000D+00  0.0000000000000D+00
   341  3.4000000000000D+00  0.0000000000000D+00  0.0000000000000D+00
   342  3.4100000000000D+00  0.0000000000000D+00  0.0000000000000D+00
   343  3.4200000000000D+00  0.0000000000000D+00  0.0000000000000D+00
   344  3.4300000000000D+00  0.0000000000000D+00  0.0000000000000D+00
   345  3.4400000000000D+00  0.0000000000000D+00  0.0000000000000D+00
   346  3.4500000000000D+00  0.0000000000000D+00  0.0000000000000D+00
   347  3.4600000000000D+00  0.0000000000000D+00  0.0000000000000D+00
   348  3.4700000000000D+00  0.0000000000000D+00  0.0000000000000D+00
   349  3.4800000000000D+00  0.0000000000000D+00  0.0000000000000D+00
   350  3.4900000000000D+00  0.0000000000000D+00  0.0000000000000D+00
   351  3.5000000000000D+00  0.0000000000000D+00  0.0000000000000D+00
   352  3.5100000000000D+00  0.0000000000000D+00  0.0000000000000D+00
   353  3.5200000000000D+00  0.0000000000000D+00  0.0000000000000D+00
   354  3.5300000000000D+00  0.0000000000000D+00  0.0000000000000D+00
   355  3.5400000000000D+00  0.0000000000000D+00  0.0000000000000D+00
   356  3.5500000000000D+00  0.0000000000000D+00  0.0000000000000D+00
   357  3.5600000000000D+00  0.0000000000000D+00  0.0000000000000D+00
   358  3.5700000000000D+00  0.0000000000000D+00  0.0000000000000D+00
   359  3.5800000000000D+00  0.0000000000000D+00  0.0000000000000D+00
   360  3.5900000000000D+00  0.0000000000000D+00  0.0000000000000D+00
   361  3.6000000000000D+00  0.0000000000000D+00  0.0000000000000D+00
   362  3.6100000000000D+00  0.0000000000000D+00  0.0000000000000D+00
   363  3.6200000000000D+00  0.0000000000000D+00  0.0000000000000D+00
   364  3.6300000000000D+00  0.0000000000000D+00  0.0000000000000D+00
   365  3.6400000000000D+00  0.0000000000000D+00  0.0000000000000D+00
   366  3.6500000000000D+00  0.0000000000000D+00  0.0000000000000D+00
   367  3.6600000000000D+00  0.0000000000000D+00  0.0000000000000D+00
   368  3.6700000000000D+00  0.0000000000000D+00  0.0000000000000D+00
   369  3.6800000000000D+00  0.0000000000000D+00  0.0000000000000D+00
   370  3.6900000000000D+00  0.0000000000000D+00  0.0000000000000D+00
   371  3.7000000000000D+00  0.0000000000000D+00  0.0000000000000D+00
   372  3.7100000000000D+00  0.0000000000000D+00  0.0000000000000D+00
   373  3.7200000000000D+00  0.0000000000000D+00  0.0000000000000D+00
   374  3.7300000000000D+00  0.0000000000000D+00  0.0000000000000D+00
   375  3.7400000000000D+00  0.0000000000000D+00  0.0000000000000D+00
   376  3.7500000000000D+00  0.0000000000000D+00  0.0000000000000D+00
   377  3.7600000000000D+00  0.0000000000000D+00  0.0000000000000D+00
   378  3.7700000000000D+00  0.0000000000000D+00  0.0000000000000D+00
   379  3.7800000000000D+00  0.0000000000000D+00  0.0000000000000D+00
   380  3.7900000000000D+00  0.0000000000000D+00  0.0000000000000D+00
   381  3.8000000000000D+00  0.0000000000000D+00  0.0000000000000D+00
   382  3.8100000000000D+00  0.0000000000000D+00  0.0000000000000D+00
   383  3.8200000000000D+00  0.0000000000000D+00  0.0000000000000D+00
   384  3.8300000000000D+00  0.0000000000000D+00  0.0000000000000D+00
   385  3.8400000000000D+00  0.0000000000000D+00  0.0000000000000D+00
   386  3.8500000000000D+00  0.0000000000000D+00  0.0000000000000D+00
   387  3.8600000000000D+00  0.0000000000000D+00  0.0000000000000D+00
   388  3.8700000000000D+00  0.0000000000000D+00  0.0000000000000D+00
   389  3.8800000000000D+00  0.0000000000000D+00  0.0000000000000D+00
   390  3.8900000000000D+00  0.0000000000000D+00  0.0000000000000D+00
   391  3.9000000000000D+00  0.0000000000000D+00  0.0000000000000D+00
   392  3.9100000000000D+00  0.0000000000000D+00  0.0000000000000D+00
   393  3.9200000000000D+00  0.0000000000000D+00  0.0000000000000D+00
   394  3.9300000000000D+00  0.0000000000000D+00  0.0000000000000D+00
   395  3.9400000000000D+00  0.0000000000000D+00  0.0000000000000D+00
   396  3.9500000000000D+00  0.0000000000000D+00  0.0000000000000D+00
   397  3.9600000000000D+00  0.0000000000000D+00  0.0000000000000D+00
   398  3.9700000000000D+00  0.0000000000000D+00  0.0000000000000D+00
   399  3.9800000000000D+00  0.0000000000000D+00  0.0000000000000D+00
   400  3.9900000000000D+00  0.0000000000000D+00  0.0000000000000D+00
   401  4.0000000000000D+00  0.0000000000000D+00  0.0000000000000D+00
   402  4.0100000000000D+00  0.0000000000000D+00  0.0000000000000D+00
   403  4.0200000000000D+00  0.0000000000000D+00  0.0000000000000D+00
   404  4.0300000000000D+00  0.0000000000000D+00  0.0000000000000D+00
   405  4.0400000000000D+00  0.0000000000000D+00  0.0000000000000D+00
   406  4.0500000000000D+00  0.0000000000000D+00  0.0000000000000D+00
   407  4.0600000000000D+00  0.0000000000000D+00  0.0000000000000D+00
   408  4.0700000000000D+00  0.0000000000000D+00  0.0000000000000D+00
   409  4.0800000000000D+00  0.0000000000000D+00  0.0000000000000D+00
   410  4.0900000000000D+00  0.0000000000000D+00  0.0000000000000D+00
   411  4.1000000000000D+00  0.0000000000000D+00  0.0000000000000D+00
   412  4.1100000000000D+00  0.0000000000000D+00  0.0000000000000D+00
   413  4.1200000000000D+00  0.0000000000000D+00  0.0000000000000D+00
   414  4.1300000000000D+00  0.0000000000000D+00  0.0000000000000D+00
   415  4.1400000000000D+00  0.0000000000000D+00  0.0000000000000D+00
   416  4.1500000000000D+00  0.0000000000000D+00  0.0000000000000D+00
   417  4.1600000000000D+00  0.0000000000000D+00  0.0000000000000D+00
   418  4.1700000000000D+00  0.0000000000000D+00  0.0000000000000D+00
   419  4.1800000000000D+00  0.0000000000000D+00  0.0000000000000D+00
   420  4.1900000000000D+00  0.0000000000000D+00  0.0000000000000D+00
   421  4.2000000000000D+00  0.0000000000000D+00  0.0000000000000D+00
   422  4.2100000000000D+00  0.0000000000000D+00  0.0000000000000D+00