Tm    ONCVPSP-3.3.0  r_core=   1.81224   1.51533   1.66706   1.70731
     69.0000     23.0000      220408    zatom,zion,pspd
     8       2   3     4   600     0    pspcod,pspxc,lmax,lloc,mmax,r2well
  5.99000000  0.00000000  0.00000000    rchrg fchrg qchrg
     2     2     2     2     0    nproj
     1     1           extension_switch
   0                         1.0249328392409D+01  9.5214124085620D-01
     1  0.0000000000000D+00 -1.2404705040936D-10  4.5057457764841D-10
     2  1.0000000000000D-02  5.8288548597224D-02 -2.3345561060017D-02
     3  2.0000000000000D-02  1.1646337892957D-01 -4.6502102716459D-02
     4  3.0000000000000D-02  1.7441124124511D-01 -6.9282074958761D-02
     5  4.0000000000000D-02  2.3201981929405D-01 -9.1500853627947D-02
     6  5.0000000000000D-02  2.8917818830215D-01 -1.1297817112141D-01
     7  6.0000000000000D-02  3.4577726249942D-01 -1.3353950875358D-01
     8  7.0000000000000D-02  4.0171022886913D-01 -1.5301743852359D-01
     9  8.0000000000000D-02  4.5687296390628D-01 -1.7125290249119D-01
    10  9.0000000000000D-02  5.1116443032775D-01 -1.8809641851888D-01
    11  1.0000000000000D-01  5.6448705085669D-01 -2.0340920179423D-01
    12  1.1000000000000D-01  6.1674705641084D-01 -2.1706419229916D-01
    13  1.2000000000000D-01  6.6785480625521D-01 -2.2894697923349D-01
    14  1.3000000000000D-01  7.1772507793249D-01 -2.3895661432289D-01
    15  1.4000000000000D-01  7.6627732505811D-01 -2.4700630693802D-01
    16  1.5000000000000D-01  8.1343590135705D-01 -2.5302399501338D-01
    17  1.6000000000000D-01  8.5913024962538D-01 -2.5695278687266D-01
    18  1.7000000000000D-01  9.0329505461708D-01 -2.5875127023198D-01
    19  1.8000000000000D-01  9.4587035918392D-01 -2.5839368585358D-01
    20  1.9000000000000D-01  9.8680164332952D-01 -2.5586996454945D-01
    21  2.0000000000000D-01  1.0260398661755D+00 -2.5118562747695D-01
    22  2.1000000000000D-01  1.0635414711747D+00 -2.4436155091454D-01
    23  2.2000000000000D-01  1.0992683552401D+00 -2.3543359794543D-01
    24  2.3000000000000D-01  1.1331878027866D+00 -2.2445212069856D-01
    25  2.4000000000000D-01  1.1652723860014D+00 -2.1148133798824D-01
    26  2.5000000000000D-01  1.1954998329646D+00 -1.9659859434653D-01
    27  2.6000000000000D-01  1.2238528655346D+00 -1.7989350754341D-01
    28  2.7000000000000D-01  1.2503190091840D+00 -1.6146701273085D-01
    29  2.8000000000000D-01  1.2748903772275D+00 -1.4143031231609D-01
    30  2.9000000000000D-01  1.2975634321081D+00 -1.1990374155885D-01
    31  3.0000000000000D-01  1.3183387266151D+00 -9.7015560687445D-02
    32  3.1000000000000D-01  1.3372206280822D+00 -7.2900685032162D-02
    33  3.2000000000000D-01  1.3542170287569D+00 -4.7699365273091D-02
    34  3.3000000000000D-01  1.3693390456513D+00 -2.1555830387815D-02
    35  3.4000000000000D-01  1.3826007132612D+00  5.3830937431990D-03
    36  3.5000000000000D-01  1.3940186725903D+00  3.2969376864215D-02
    37  3.6000000000000D-01  1.4036118599281D+00  6.1055174668178D-02
    38  3.7000000000000D-01  1.4114011988065D+00  8.9494203578252D-02
    39  3.8000000000000D-01  1.4174092985029D+00  1.1814308677529D-01
    40  3.9000000000000D-01  1.4216601623629D+00  1.4686265851198D-01
    41  4.0000000000000D-01  1.4241789090892D+00  1.7551921413463D-01
    42  4.1000000000000D-01  1.4249915099792D+00  2.0398569373697D-01
    43  4.2000000000000D-01  1.4241245449015D+00  2.3214278799277D-01
    44  4.3000000000000D-01  1.4216049795758D+00  2.5987995545374D-01
    45  4.4000000000000D-01  1.4174599664647D+00  2.8709634144618D-01
    46  4.5000000000000D-01  1.4117166713097D+00  3.1370158964918D-01
    47  4.6000000000000D-01  1.4044021270337D+00  3.3961653848090D-01
    48  4.7000000000000D-01  1.3955431164104D+00  3.6477379554668D-01
    49  4.8000000000000D-01  1.3851660845569D+00  3.8911818460353D-01
    50  4.9000000000000D-01  1.3732970819453D+00  4.1260706076048D-01
    51  5.0000000000000D-01  1.3599617382632D+00  4.3521049094789D-01
    52  5.1000000000000D-01  1.3451852670755D+00  4.5691129804193D-01
    53  5.2000000000000D-01  1.3289925008596D+00  4.7770496840717D-01
    54  5.3000000000000D-01  1.3114079556123D+00  4.9759942400725D-01
    55  5.4000000000000D-01  1.2924559238486D+00  5.1661466161861D-01
    56  5.5000000000000D-01  1.2721605944537D+00  5.3478226304783D-01
    57  5.6000000000000D-01  1.2505461974990D+00  5.5214478158572D-01
    58  5.7000000000000D-01  1.2276371717981D+00  5.6875501122164D-01
    59  5.8000000000000D-01  1.2034583526753D+00  5.8467514636252D-01
    60  5.9000000000000D-01  1.1780351771286D+00  5.9997584095833D-01
    61  6.0000000000000D-01  1.1513939033184D+00  6.1473517699426D-01
    62  6.1000000000000D-01  1.1235618410916D+00  6.2903755327790D-01
    63  6.2000000000000D-01  1.0945675900638D+00  6.4297250629799D-01
    64  6.3000000000000D-01  1.0644412816362D+00  6.5663347566305D-01
    65  6.4000000000000D-01  1.0332148212210D+00  6.7011652722516D-01
    66  6.5000000000000D-01  1.0009221268846D+00  6.8351904745130D-01
    67  6.6000000000000D-01  9.6759936060282D-01  6.9693842291704D-01
    68  6.7000000000000D-01  9.3328514835360D-01  7.1047071895593D-01
    69  6.8000000000000D-01  8.9802078534633D-01  7.2420937150296D-01
    70  6.9000000000000D-01  8.6185042281289D-01  7.3824390601716D-01
    71  7.0000000000000D-01  8.2482123295375D-01  7.5265869705908D-01
    72  7.1000000000000D-01  7.8698354884840D-01  7.6753178163342D-01
    73  7.2000000000000D-01  7.4839097639674D-01  7.8293373879322D-01
    74  7.3000000000000D-01  7.0910047565923D-01  7.9892664723677D-01
    75  7.4000000000000D-01  6.6917240930137D-01  8.1556313173115D-01
    76  7.5000000000000D-01  6.2867055622139D-01  8.3288550816636D-01
    77  7.6000000000000D-01  5.8766208884560D-01  8.5092503589766D-01
    78  7.7000000000000D-01  5.4621751300685D-01  8.6970128478235D-01
    79  7.8000000000000D-01  5.0441056977461D-01  8.8922162297828D-01
    80  7.9000000000000D-01  4.6231809907700D-01  9.0948083015083D-01
    81  8.0000000000000D-01  4.2001986543420D-01  9.3046083926650D-01
    82  8.1000000000000D-01  3.7759834660959D-01  9.5213060863849D-01
    83  8.2000000000000D-01  3.3513848646901D-01  9.7444612435842D-01
    84  8.3000000000000D-01  2.9272741381476D-01  9.9735053171972D-01
    85  8.4000000000000D-01  2.5045412942299D-01  1.0207743927294D+00
    86  8.5000000000000D-01  2.0840916395359D-01  1.0446360653388D+00
    87  8.6000000000000D-01  1.6668420981449D-01  1.0688421986222D+00
    88  8.7000000000000D-01  1.2537173044041D-01  1.0932883368123D+00
    89  8.8000000000000D-01  8.4564550784366D-02  1.1178596238876D+00
    90  8.9000000000000D-01  4.4355433111282D-02  1.1424315993135D+00
    91  9.0000000000000D-01  4.8366424223448D-03  1.1668710745897D+00
    92  9.1000000000000D-01 -3.3900493979008D-02  1.1910370794601D+00
    93  9.2000000000000D-01 -7.1766028147967D-02  1.2147818660230D+00
    94  9.3000000000000D-01 -1.0867182969953D-01  1.2379519585430D+00
    95  9.4000000000000D-01 -1.4453201587631D-01  1.2603892365234D+00
    96  9.5000000000000D-01 -1.7926336889351D-01  1.2819320385658D+00
    97  9.6000000000000D-01 -2.1278573612910D-01  1.3024162747187D+00
    98  9.7000000000000D-01 -2.4502240895039D-01  1.3216765353915D+00
    99  9.8000000000000D-01 -2.7590047627529D-01  1.3395471855227D+00
   100  9.9000000000000D-01 -3.0535114933247D-01  1.3558634334859D+00
   101  1.0000000000000D+00 -3.3331005452374D-01  1.3704623652261D+00
   102  1.0100000000000D+00 -3.5971749179345D-01  1.3831839353128D+00
   103  1.0200000000000D+00 -3.8451865646738D-01  1.3938719079637D+00
   104  1.0300000000000D+00 -4.0766382315715D-01  1.4023747426737D+00
   105  1.0400000000000D+00 -4.2910849093057D-01  1.4085464206164D+00
   106  1.0500000000000D+00 -4.4881348971462D-01  1.4122472099441D+00
   107  1.0600000000000D+00 -4.6674504857164D-01  1.4133443698566D+00
   108  1.0700000000000D+00 -4.8287482724437D-01  1.4117127952644D+00
   109  1.0800000000000D+00 -4.9717991314546D-01  1.4072356058998D+00
   110  1.0900000000000D+00 -5.0964278662581D-01  1.3998046854446D+00
   111  1.1000000000000D+00 -5.2025125817906D-01  1.3893211783734D+00
   112  1.1100000000000D+00 -5.2899838187526D-01  1.3756959538537D+00
   113  1.1200000000000D+00 -5.3588234998707D-01  1.3588500477449D+00
   114  1.1300000000000D+00 -5.4090637433110D-01  1.3387150951347D+00
   115  1.1400000000000D+00 -5.4407856036349D-01  1.3152337671192D+00
   116  1.1500000000000D+00 -5.4541178053189D-01  1.2883602265941D+00
   117  1.1600000000000D+00 -5.4492355364059D-01  1.2580606183089D+00
   118  1.1700000000000D+00 -5.4263593716643D-01  1.2243136086934D+00
   119  1.1800000000000D+00 -5.3857543958156D-01  1.1871109910180D+00
   120  1.1900000000000D+00 -5.3277295959817D-01  1.1464583706874D+00
   121  1.2000000000000D+00 -5.2526375881818D-01  1.1023759438365D+00
   122  1.2100000000000D+00 -5.1608747414559D-01  1.0548993818326D+00
   123  1.2200000000000D+00 -5.0528817537276D-01  1.0040808309452D+00
   124  1.2300000000000D+00 -4.9291447237064D-01  9.4999003321277D-01
   125  1.2400000000000D+00 -4.7901967549586D-01  8.9271557179878D-01
   126  1.2500000000000D+00 -4.6366201150036D-01  8.3236623973796D-01
   127  1.2600000000000D+00 -4.4690489489947D-01  7.6907252348414D-01
   128  1.2700000000000D+00 -4.2881725344854D-01  7.0298818849453D-01
   129  1.2800000000000D+00 -4.0947390474464D-01  6.3429194880420D-01
   130  1.2900000000000D+00 -3.8895597647595D-01  5.6318918830077D-01
   131  1.3000000000000D+00 -3.6735136171231D-01  4.8991369785343D-01
   132  1.3100000000000D+00 -3.4475519811251D-01  4.1472938443343D-01
   133  1.3200000000000D+00 -3.2127035259002D-01  3.3793188528400D-01
   134  1.3300000000000D+00 -2.9700789365306D-01  2.5985002231844D-01
   135  1.3400000000000D+00 -2.7208752793282D-01  1.8084701395897D-01
   136  1.3500000000000D+00 -2.4663796745097D-01  1.0132133035273D-01
   137  1.3600000000000D+00 -2.2079719989671D-01  2.1707095849533D-02
   138  1.3700000000000D+00 -1.9471261813278D-01 -5.7526107776107D-02
   139  1.3800000000000D+00 -1.6854096021808D-01 -1.3587419939296D-01
   140  1.3900000000000D+00 -1.4244801727207D-01 -2.1280046089704D-01
   141  1.4000000000000D+00 -1.1660803640579D-01 -2.8773854155974D-01
   142  1.4100000000000D+00 -9.1202760835941D-02 -3.6009679520581D-01
   143  1.4200000000000D+00 -6.6420031239234D-02 -4.2926419777919D-01
   144  1.4300000000000D+00 -4.2451850280124D-02 -4.9461816272717D-01
   145  1.4400000000000D+00 -1.9491841226850D-02 -5.5553448009900D-01
   146  1.4500000000000D+00  2.2680338420876D-03 -6.1139981167272D-01
   147  1.4600000000000D+00  2.2641587833224D-02 -6.6162703906431D-01
   148  1.4700000000000D+00  4.1453568796244D-02 -7.0567418966311D-01
   149  1.4800000000000D+00  5.8545508962489D-02 -7.4306555202284D-01
   150  1.4900000000000D+00  7.3784242421634D-02 -7.7342219341604D-01
   151  1.5000000000000D+00  8.7067460562933D-02 -7.9648120973740D-01
   152  1.5100000000000D+00  9.8340618483303D-02 -8.1215584876538D-01
   153  1.5200000000000D+00  1.0760375883672D-01 -8.2055843420674D-01
   154  1.5300000000000D+00  1.1490966362429D-01 -8.2198937877929D-01
   155  1.5400000000000D+00  1.2035187894125D-01 -8.1689100277606D-01
   156  1.5500000000000D+00  1.2400257255992D-01 -8.0561966005701D-01
   157  1.5600000000000D+00  1.2592612540393D-01 -7.8849493311304D-01
   158  1.5700000000000D+00  1.2625732391303D-01 -7.6608583946808D-01
   159  1.5800000000000D+00  1.2515964378911D-01 -7.3905849463315D-01
   160  1.5900000000000D+00  1.2275654112824D-01 -7.0792529406143D-01
   161  1.6000000000000D+00  1.1916731594469D-01 -6.7317660361329D-01
   162  1.6100000000000D+00  1.1453099153676D-01 -6.3536875520973D-01
   163  1.6200000000000D+00  1.0898926969842D-01 -5.9506208727829D-01
   164  1.6300000000000D+00  1.0268314359602D-01 -5.5280901615274D-01
   165  1.6400000000000D+00  9.5754728909142D-02 -5.0916125506316D-01
   166  1.6500000000000D+00  8.8345685148138D-02 -4.6466453386415D-01
   167  1.6600000000000D+00  8.0595809598100D-02 -4.1985395822811D-01
   168  1.6700000000000D+00  7.2641874824006D-02 -3.7525025602752D-01
   169  1.6800000000000D+00  6.4616454710489D-02 -3.3135597419061D-01
   170  1.6900000000000D+00  5.6646787261882D-02 -2.8865179864805D-01
   171  1.7000000000000D+00  4.8853684937508D-02 -2.4759303185310D-01
   172  1.7100000000000D+00  4.1350498944257D-02 -2.0860624853701D-01
   173  1.7200000000000D+00  3.4242148983183D-02 -1.7208616657274D-01
   174  1.7300000000000D+00  2.7624222236435D-02 -1.3839274513895D-01
   175  1.7400000000000D+00  2.1582154173093D-02 -1.0784855055874D-01
   176  1.7500000000000D+00  1.6191350153540D-02 -8.0740655296728D-02
   177  1.7600000000000D+00  1.1516546108240D-02 -5.7318594560140D-02
   178  1.7700000000000D+00  7.5966496555559D-03 -3.7720265472008D-02
   179  1.7800000000000D+00  4.4593719988682D-03 -2.2047337750614D-02
   180  1.7900000000000D+00  2.2002431324265D-03 -1.0745901012171D-02
   181  1.8000000000000D+00  8.5415567159226D-04 -3.9761693373295D-03
   182  1.8100000000000D+00  2.1306962768625D-04 -7.6656319398008D-04
   183  1.8200000000000D+00 -2.7553461977363D-06  2.0954648984376D-04
   184  1.8300000000000D+00 -1.4638357509615D-05  1.2200098402048D-04
   185  1.8400000000000D+00  1.2174654517743D-05 -8.8786180556438D-05
   186  1.8500000000000D+00  1.0990807366396D-05 -7.5265839674342D-05
   187  1.8600000000000D+00 -1.1870128713392D-06  1.0292755471332D-05
   188  1.8700000000000D+00 -1.9536697527849D-06  1.5877740406292D-05
   189  1.8800000000000D+00 -1.1086922986713D-07  3.2449908504805D-07
   190  1.8900000000000D+00 -3.9074558465956D-07  1.1436589291776D-06
   191  1.9000000000000D+00 -4.1510796964152D-08  1.2149643007916D-07
   192  1.9100000000000D+00  0.0000000000000D+00  0.0000000000000D+00
   193  1.9200000000000D+00  0.0000000000000D+00  0.0000000000000D+00
   194  1.9300000000000D+00  0.0000000000000D+00  0.0000000000000D+00
   195  1.9400000000000D+00  0.0000000000000D+00  0.0000000000000D+00
   196  1.9500000000000D+00  0.0000000000000D+00  0.0000000000000D+00
   197  1.9600000000000D+00  0.0000000000000D+00  0.0000000000000D+00
   198  1.9700000000000D+00  0.0000000000000D+00  0.0000000000000D+00
   199  1.9800000000000D+00  0.0000000000000D+00  0.0000000000000D+00
   200  1.9900000000000D+00  0.0000000000000D+00  0.0000000000000D+00
   201  2.0000000000000D+00  0.0000000000000D+00  0.0000000000000D+00
   202  2.0100000000000D+00  0.0000000000000D+00  0.0000000000000D+00
   203  2.0200000000000D+00  0.0000000000000D+00  0.0000000000000D+00
   204  2.0300000000000D+00  0.0000000000000D+00  0.0000000000000D+00
   205  2.0400000000000D+00  0.0000000000000D+00  0.0000000000000D+00
   206  2.0500000000000D+00  0.0000000000000D+00  0.0000000000000D+00
   207  2.0600000000000D+00  0.0000000000000D+00  0.0000000000000D+00
   208  2.0700000000000D+00  0.0000000000000D+00  0.0000000000000D+00
   209  2.0800000000000D+00  0.0000000000000D+00  0.0000000000000D+00
   210  2.0900000000000D+00  0.0000000000000D+00  0.0000000000000D+00
   211  2.1000000000000D+00  0.0000000000000D+00  0.0000000000000D+00
   212  2.1100000000000D+00  0.0000000000000D+00  0.0000000000000D+00
   213  2.1200000000000D+00  0.0000000000000D+00  0.0000000000000D+00
   214  2.1300000000000D+00  0.0000000000000D+00  0.0000000000000D+00
   215  2.1400000000000D+00  0.0000000000000D+00  0.0000000000000D+00
   216  2.1500000000000D+00  0.0000000000000D+00  0.0000000000000D+00
   217  2.1600000000000D+00  0.0000000000000D+00  0.0000000000000D+00
   218  2.1700000000000D+00  0.0000000000000D+00  0.0000000000000D+00
   219  2.1800000000000D+00  0.0000000000000D+00  0.0000000000000D+00
   220  2.1900000000000D+00  0.0000000000000D+00  0.0000000000000D+00
   221  2.2000000000000D+00  0.0000000000000D+00  0.0000000000000D+00
   222  2.2100000000000D+00  0.0000000000000D+00  0.0000000000000D+00
   223  2.2200000000000D+00  0.0000000000000D+00  0.0000000000000D+00
   224  2.2300000000000D+00  0.0000000000000D+00  0.0000000000000D+00
   225  2.2400000000000D+00  0.0000000000000D+00  0.0000000000000D+00
   226  2.2500000000000D+00  0.0000000000000D+00  0.0000000000000D+00
   227  2.2600000000000D+00  0.0000000000000D+00  0.0000000000000D+00
   228  2.2700000000000D+00  0.0000000000000D+00  0.0000000000000D+00
   229  2.2800000000000D+00  0.0000000000000D+00  0.0000000000000D+00
   230  2.2900000000000D+00  0.0000000000000D+00  0.0000000000000D+00
   231  2.3000000000000D+00  0.0000000000000D+00  0.0000000000000D+00
   232  2.3100000000000D+00  0.0000000000000D+00  0.0000000000000D+00
   233  2.3200000000000D+00  0.0000000000000D+00  0.0000000000000D+00
   234  2.3300000000000D+00  0.0000000000000D+00  0.0000000000000D+00
   235  2.3400000000000D+00  0.0000000000000D+00  0.0000000000000D+00
   236  2.3500000000000D+00  0.0000000000000D+00  0.0000000000000D+00
   237  2.3600000000000D+00  0.0000000000000D+00  0.0000000000000D+00
   238  2.3700000000000D+00  0.0000000000000D+00  0.0000000000000D+00
   239  2.3800000000000D+00  0.0000000000000D+00  0.0000000000000D+00
   240  2.3900000000000D+00  0.0000000000000D+00  0.0000000000000D+00
   241  2.4000000000000D+00  0.0000000000000D+00  0.0000000000000D+00
   242  2.4100000000000D+00  0.0000000000000D+00  0.0000000000000D+00
   243  2.4200000000000D+00  0.0000000000000D+00  0.0000000000000D+00
   244  2.4300000000000D+00  0.0000000000000D+00  0.0000000000000D+00
   245  2.4400000000000D+00  0.0000000000000D+00  0.0000000000000D+00
   246  2.4500000000000D+00  0.0000000000000D+00  0.0000000000000D+00
   247  2.4600000000000D+00  0.0000000000000D+00  0.0000000000000D+00
   248  2.4700000000000D+00  0.0000000000000D+00  0.0000000000000D+00
   249  2.4800000000000D+00  0.0000000000000D+00  0.0000000000000D+00
   250  2.4900000000000D+00  0.0000000000000D+00  0.0000000000000D+00
   251  2.5000000000000D+00  0.0000000000000D+00  0.0000000000000D+00
   252  2.5100000000000D+00  0.0000000000000D+00  0.0000000000000D+00
   253  2.5200000000000D+00  0.0000000000000D+00  0.0000000000000D+00
   254  2.5300000000000D+00  0.0000000000000D+00  0.0000000000000D+00
   255  2.5400000000000D+00  0.0000000000000D+00  0.0000000000000D+00
   256  2.5500000000000D+00  0.0000000000000D+00  0.0000000000000D+00
   257  2.5600000000000D+00  0.0000000000000D+00  0.0000000000000D+00
   258  2.5700000000000D+00  0.0000000000000D+00  0.0000000000000D+00
   259  2.5800000000000D+00  0.0000000000000D+00  0.0000000000000D+00
   260  2.5900000000000D+00  0.0000000000000D+00  0.0000000000000D+00
   261  2.6000000000000D+00  0.0000000000000D+00  0.0000000000000D+00
   262  2.6100000000000D+00  0.0000000000000D+00  0.0000000000000D+00
   263  2.6200000000000D+00  0.0000000000000D+00  0.0000000000000D+00
   264  2.6300000000000D+00  0.0000000000000D+00  0.0000000000000D+00
   265  2.6400000000000D+00  0.0000000000000D+00  0.0000000000000D+00
   266  2.6500000000000D+00  0.0000000000000D+00  0.0000000000000D+00
   267  2.6600000000000D+00  0.0000000000000D+00  0.0000000000000D+00
   268  2.6700000000000D+00  0.0000000000000D+00  0.0000000000000D+00
   269  2.6800000000000D+00  0.0000000000000D+00  0.0000000000000D+00
   270  2.6900000000000D+00  0.0000000000000D+00  0.0000000000000D+00
   271  2.7000000000000D+00  0.0000000000000D+00  0.0000000000000D+00
   272  2.7100000000000D+00  0.0000000000000D+00  0.0000000000000D+00
   273  2.7200000000000D+00  0.0000000000000D+00  0.0000000000000D+00
   274  2.7300000000000D+00  0.0000000000000D+00  0.0000000000000D+00
   275  2.7400000000000D+00  0.0000000000000D+00  0.0000000000000D+00
   276  2.7500000000000D+00  0.0000000000000D+00  0.0000000000000D+00
   277  2.7600000000000D+00  0.0000000000000D+00  0.0000000000000D+00
   278  2.7700000000000D+00  0.0000000000000D+00  0.0000000000000D+00
   279  2.7800000000000D+00  0.0000000000000D+00  0.0000000000000D+00
   280  2.7900000000000D+00  0.0000000000000D+00  0.0000000000000D+00
   281  2.8000000000000D+00  0.0000000000000D+00  0.0000000000000D+00
   282  2.8100000000000D+00  0.0000000000000D+00  0.0000000000000D+00
   283  2.8200000000000D+00  0.0000000000000D+00  0.0000000000000D+00
   284  2.8300000000000D+00  0.0000000000000D+00  0.0000000000000D+00
   285  2.8400000000000D+00  0.0000000000000D+00  0.0000000000000D+00
   286  2.8500000000000D+00  0.0000000000000D+00  0.0000000000000D+00
   287  2.8600000000000D+00  0.0000000000000D+00  0.0000000000000D+00
   288  2.8700000000000D+00  0.0000000000000D+00  0.0000000000000D+00
   289  2.8800000000000D+00  0.0000000000000D+00  0.0000000000000D+00
   290  2.8900000000000D+00  0.0000000000000D+00  0.0000000000000D+00
   291  2.9000000000000D+00  0.0000000000000D+00  0.0000000000000D+00
   292  2.9100000000000D+00  0.0000000000000D+00  0.0000000000000D+00
   293  2.9200000000000D+00  0.0000000000000D+00  0.0000000000000D+00
   294  2.9300000000000D+00  0.0000000000000D+00  0.0000000000000D+00
   295  2.9400000000000D+00  0.0000000000000D+00  0.0000000000000D+00
   296  2.9500000000000D+00  0.0000000000000D+00  0.0000000000000D+00
   297  2.9600000000000D+00  0.0000000000000D+00  0.0000000000000D+00
   298  2.9700000000000D+00  0.0000000000000D+00  0.0000000000000D+00
   299  2.9800000000000D+00  0.0000000000000D+00  0.0000000000000D+00
   300  2.9900000000000D+00  0.0000000000000D+00  0.0000000000000D+00
   301  3.0000000000000D+00  0.0000000000000D+00  0.0000000000000D+00
   302  3.0100000000000D+00  0.0000000000000D+00  0.0000000000000D+00
   303  3.0200000000000D+00  0.0000000000000D+00  0.0000000000000D+00
   304  3.0300000000000D+00  0.0000000000000D+00  0.0000000000000D+00
   305  3.0400000000000D+00  0.0000000000000D+00  0.0000000000000D+00
   306  3.0500000000000D+00  0.0000000000000D+00  0.0000000000000D+00
   307  3.0600000000000D+00  0.0000000000000D+00  0.0000000000000D+00
   308  3.0700000000000D+00  0.0000000000000D+00  0.0000000000000D+00
   309  3.0800000000000D+00  0.0000000000000D+00  0.0000000000000D+00
   310  3.0900000000000D+00  0.0000000000000D+00  0.0000000000000D+00
   311  3.1000000000000D+00  0.0000000000000D+00  0.0000000000000D+00
   312  3.1100000000000D+00  0.0000000000000D+00  0.0000000000000D+00
   313  3.1200000000000D+00  0.0000000000000D+00  0.0000000000000D+00
   314  3.1300000000000D+00  0.0000000000000D+00  0.0000000000000D+00
   315  3.1400000000000D+00  0.0000000000000D+00  0.0000000000000D+00
   316  3.1500000000000D+00  0.0000000000000D+00  0.0000000000000D+00
   317  3.1600000000000D+00  0.0000000000000D+00  0.0000000000000D+00
   318  3.1700000000000D+00  0.0000000000000D+00  0.0000000000000D+00
   319  3.1800000000000D+00  0.0000000000000D+00  0.0000000000000D+00
   320  3.1900000000000D+00  0.0000000000000D+00  0.0000000000000D+00
   321  3.2000000000000D+00  0.0000000000000D+00  0.0000000000000D+00
   322  3.2100000000000D+00  0.0000000000000D+00  0.0000000000000D+00
   323  3.2200000000000D+00  0.0000000000000D+00  0.0000000000000D+00
   324  3.2300000000000D+00  0.0000000000000D+00  0.0000000000000D+00
   325  3.2400000000000D+00  0.0000000000000D+00  0.0000000000000D+00
   326  3.2500000000000D+00  0.0000000000000D+00  0.0000000000000D+00
   327  3.2600000000000D+00  0.0000000000000D+00  0.0000000000000D+00
   328  3.2700000000000D+00  0.0000000000000D+00  0.0000000000000D+00
   329  3.2800000000000D+00  0.0000000000000D+00  0.0000000000000D+00
   330  3.2900000000000D+00  0.0000000000000D+00  0.0000000000000D+00
   331  3.3000000000000D+00  0.0000000000000D+00  0.0000000000000D+00
   332  3.3100000000000D+00  0.0000000000000D+00  0.0000000000000D+00
   333  3.3200000000000D+00  0.0000000000000D+00  0.0000000000000D+00
   334  3.3300000000000D+00  0.0000000000000D+00  0.0000000000000D+00
   335  3.3400000000000D+00  0.0000000000000D+00  0.0000000000000D+00
   336  3.3500000000000D+00  0.0000000000000D+00  0.0000000000000D+00
   337  3.3600000000000D+00  0.0000000000000D+00  0.0000000000000D+00
   338  3.3700000000000D+00  0.0000000000000D+00  0.0000000000000D+00
   339  3.3800000000000D+00  0.0000000000000D+00  0.0000000000000D+00
   340  3.3900000000000D+00  0.0000000000000D+00  0.0000000000000D+00
   341  3.4000000000000D+00  0.0000000000000D+00  0.0000000000000D+00
   342  3.4100000000000D+00  0.0000000000000D+00  0.0000000000000D+00
   343  3.4200000000000D+00  0.0000000000000D+00  0.0000000000000D+00
   344  3.4300000000000D+00  0.0000000000000D+00  0.0000000000000D+00
   345  3.4400000000000D+00  0.0000000000000D+00  0.0000000000000D+00
   346  3.4500000000000D+00  0.0000000000000D+00  0.0000000000000D+00
   347  3.4600000000000D+00  0.0000000000000D+00  0.0000000000000D+00
   348  3.4700000000000D+00  0.0000000000000D+00  0.0000000000000D+00
   349  3.4800000000000D+00  0.0000000000000D+00  0.0000000000000D+00
   350  3.4900000000000D+00  0.0000000000000D+00  0.0000000000000D+00
   351  3.5000000000000D+00  0.0000000000000D+00  0.0000000000000D+00
   352  3.5100000000000D+00  0.0000000000000D+00  0.0000000000000D+00
   353  3.5200000000000D+00  0.0000000000000D+00  0.0000000000000D+00
   354  3.5300000000000D+00  0.0000000000000D+00  0.0000000000000D+00
   355  3.5400000000000D+00  0.0000000000000D+00  0.0000000000000D+00
   356  3.5500000000000D+00  0.0000000000000D+00  0.0000000000000D+00
   357  3.5600000000000D+00  0.0000000000000D+00  0.0000000000000D+00
   358  3.5700000000000D+00  0.0000000000000D+00  0.0000000000000D+00
   359  3.5800000000000D+00  0.0000000000000D+00  0.0000000000000D+00
   360  3.5900000000000D+00  0.0000000000000D+00  0.0000000000000D+00
   361  3.6000000000000D+00  0.0000000000000D+00  0.0000000000000D+00
   362  3.6100000000000D+00  0.0000000000000D+00  0.0000000000000D+00
   363  3.6200000000000D+00  0.0000000000000D+00  0.0000000000000D+00
   364  3.6300000000000D+00  0.0000000000000D+00  0.0000000000000D+00
   365  3.6400000000000D+00  0.0000000000000D+00  0.0000000000000D+00
   366  3.6500000000000D+00  0.0000000000000D+00  0.0000000000000D+00
   367  3.6600000000000D+00  0.0000000000000D+00  0.0000000000000D+00
   368  3.6700000000000D+00  0.0000000000000D+00  0.0000000000000D+00
   369  3.6800000000000D+00  0.0000000000000D+00  0.0000000000000D+00
   370  3.6900000000000D+00  0.0000000000000D+00  0.0000000000000D+00
   371  3.7000000000000D+00  0.0000000000000D+00  0.0000000000000D+00
   372  3.7100000000000D+00  0.0000000000000D+00  0.0000000000000D+00
   373  3.7200000000000D+00  0.0000000000000D+00  0.0000000000000D+00
   374  3.7300000000000D+00  0.0000000000000D+00  0.0000000000000D+00
   375  3.7400000000000D+00  0.0000000000000D+00  0.0000000000000D+00
   376  3.7500000000000D+00  0.0000000000000D+00  0.0000000000000D+00
   377  3.7600000000000D+00  0.0000000000000D+00  0.0000000000000D+00
   378  3.7700000000000D+00  0.0000000000000D+00  0.0000000000000D+00
   379  3.7800000000000D+00  0.0000000000000D+00  0.0000000000000D+00
   380  3.7900000000000D+00  0.0000000000000D+00  0.0000000000000D+00
   381  3.8000000000000D+00  0.0000000000000D+00  0.0000000000000D+00
   382  3.8100000000000D+00  0.0000000000000D+00  0.0000000000000D+00
   383  3.8200000000000D+00  0.0000000000000D+00  0.0000000000000D+00
   384  3.8300000000000D+00  0.0000000000000D+00  0.0000000000000D+00
   385  3.8400000000000D+00  0.0000000000000D+00  0.0000000000000D+00
   386  3.8500000000000D+00  0.0000000000000D+00  0.0000000000000D+00
   387  3.8600000000000D+00  0.0000000000000D+00  0.0000000000000D+00
   388  3.8700000000000D+00  0.0000000000000D+00  0.0000000000000D+00
   389  3.8800000000000D+00  0.0000000000000D+00  0.0000000000000D+00
   390  3.8900000000000D+00  0.0000000000000D+00  0.0000000000000D+00
   391  3.9000000000000D+00  0.0000000000000D+00  0.0000000000000D+00
   392  3.9100000000000D+00  0.0000000000000D+00  0.0000000000000D+00
   393  3.9200000000000D+00  0.0000000000000D+00  0.0000000000000D+00
   394  3.9300000000000D+00  0.0000000000000D+00  0.0000000000000D+00
   395  3.9400000000000D+00  0.0000000000000D+00  0.0000000000000D+00
   396  3.9500000000000D+00  0.0000000000000D+00  0.0000000000000D+00
   397  3.9600000000000D+00  0.0000000000000D+00  0.0000000000000D+00
   398  3.9700000000000D+00  0.0000000000000D+00  0.0000000000000D+00
   399  3.9800000000000D+00  0.0000000000000D+00  0.0000000000000D+00
   400  3.9900000000000D+00  0.0000000000000D+00  0.0000000000000D+00
   401  4.0000000000000D+00  0.0000000000000D+00  0.0000000000000D+00
   402  4.0100000000000D+00  0.0000000000000D+00  0.0000000000000D+00
   403  4.0200000000000D+00  0.0000000000000D+00  0.0000000000000D+00
   404  4.0300000000000D+00  0.0000000000000D+00  0.0000000000000D+00
   405  4.0400000000000D+00  0.0000000000000D+00  0.0000000000000D+00
   406  4.0500000000000D+00  0.0000000000000D+00  0.0000000000000D+00
   407  4.0600000000000D+00  0.0000000000000D+00  0.0000000000000D+00
   408  4.0700000000000D+00  0.0000000000000D+00  0.0000000000000D+00
   409  4.0800000000000D+00  0.0000000000000D+00  0.0000000000000D+00
   410  4.0900000000000D+00  0.0000000000000D+00  0.0000000000000D+00
   411  4.1000000000000D+00  0.0000000000000D+00  0.0000000000000D+00
   412  4.1100000000000D+00  0.0000000000000D+00  0.0000000000000D+00
   413  4.1200000000000D+00  0.0000000000000D+00  0.0000000000000D+00
   414  4.1300000000000D+00  0.0000000000000D+00  0.0000000000000D+00
   415  4.1400000000000D+00  0.0000000000000D+00  0.0000000000000D+00
   416  4.1500000000000D+00  0.0000000000000D+00  0.0000000000000D+00
   417  4.1600000000000D+00  0.0000000000000D+00  0.0000000000000D+00
   418  4.1700000000000D+00  0.0000000000000D+00  0.0000000000000D+00
   419  4.1800000000000D+00  0.0000000000000D+00  0.0000000000000D+00
   420  4.1900000000000D+00  0.0000000000000D+00  0.0000000000000D+00
   421  4.2000000000000D+00  0.0000000000000D+00  0.0000000000000D+00
   422  4.2100000000000D+00  0.0000000000000D+00  0.0000000000000D+00