La    ONCVPSP-3.3.0  r_core=   2.11664   1.60878   1.85636   1.66739
     57.0000     11.0000      220408    zatom,zion,pspd
     8       2   3     4   600     0    pspcod,pspxc,lmax,lloc,mmax,r2well
  5.99000000  0.00000000  0.00000000    rchrg fchrg qchrg
     2     2     2     2     0    nproj
     1     1           extension_switch
   0                         6.7270720924153D+00  6.5082041665107D-01
     1  0.0000000000000D+00 -3.4540426074869D-12  3.6442598938535D-11
     2  1.0000000000000D-02  3.0935195116122D-02 -1.0206027367146D-02
     3  2.0000000000000D-02  6.1855494435863D-02 -2.0376382506705D-02
     4  3.0000000000000D-02  9.2745997810099D-02 -3.0475597917215D-02
     5  4.0000000000000D-02  1.2359179634863D-01 -4.0468614097562D-02
     6  5.0000000000000D-02  1.5437796796155D-01 -5.0320979926654D-02
     7  6.0000000000000D-02  1.8508957279736D-01 -5.9999048724272D-02
     8  7.0000000000000D-02  2.1571164854747D-01 -6.9470168596338D-02
     9  8.0000000000000D-02  2.4622920559031D-01 -7.8702865704298D-02
    10  9.0000000000000D-02  2.7662722195230D-01 -8.7667019143512D-02
    11  1.0000000000000D-01  3.0689063806823D-01 -9.6334026169312D-02
    12  1.1000000000000D-01  3.3700435132933D-01 -1.0467695657142D-01
    13  1.2000000000000D-01  3.6695321041371D-01 -1.1267069506740D-01
    14  1.3000000000000D-01  3.9672200940102D-01 -1.2029207066331D-01
    15  1.4000000000000D-01  4.2629548168114D-01 -1.2751997201463D-01
    16  1.5000000000000D-01  4.5565829367441D-01 -1.3433544791183D-01
    17  1.6000000000000D-01  4.8479503839031D-01 -1.4072179211280D-01
    18  1.7000000000000D-01  5.1369022885984D-01 -1.4666461184789D-01
    19  1.8000000000000D-01  5.4232829148681D-01 -1.5215187943175D-01
    20  1.9000000000000D-01  5.7069355937233D-01 -1.5717396652944D-01
    21  2.0000000000000D-01  5.9877026567678D-01 -1.6172366074152D-01
    22  2.1000000000000D-01  6.2654253709309D-01 -1.6579616429294D-01
    23  2.2000000000000D-01  6.5399438751457D-01 -1.6938907473359D-01
    24  2.3000000000000D-01  6.8110971199030D-01 -1.7250234768316D-01
    25  2.4000000000000D-01  7.0787228106988D-01 -1.7513824177863D-01
    26  2.5000000000000D-01  7.3426573564805D-01 -1.7730124610893D-01
    27  2.6000000000000D-01  7.6027358242808D-01 -1.7899799054692D-01
    28  2.7000000000000D-01  7.8587919012999D-01 -1.8023713951305D-01
    29  2.8000000000000D-01  8.1106578657685D-01 -1.8102926982737D-01
    30  2.9000000000000D-01  8.3581645679794D-01 -1.8138673342589D-01
    31  3.0000000000000D-01  8.6011414229288D-01 -1.8132350583251D-01
    32  3.1000000000000D-01  8.8394164160436D-01 -1.8085502138914D-01
    33  3.2000000000000D-01  9.0728161235008D-01 -1.7999799635177D-01
    34  3.3000000000000D-01  9.3011657486583D-01 -1.7877024105974D-01
    35  3.4000000000000D-01  9.5242891761159D-01 -1.7719046247802D-01
    36  3.5000000000000D-01  9.7420090449133D-01 -1.7527805849704D-01
    37  3.6000000000000D-01  9.9541468423401D-01 -1.7305290545053D-01
    38  3.7000000000000D-01  1.0160523019790D+00 -1.7053514037959D-01
    39  3.8000000000000D-01  1.0360957132024D+00 -1.6774493962850D-01
    40  3.9000000000000D-01  1.0555268001138D+00 -1.6470229540449D-01
    41  4.0000000000000D-01  1.0743273906420D+00 -1.6142679197137D-01
    42  4.1000000000000D-01  1.0924792801183D+00 -1.5793738317004D-01
    43  4.2000000000000D-01  1.1099642557505D+00 -1.5425217297433D-01
    44  4.3000000000000D-01  1.1267641239697D+00 -1.5038820079052D-01
    45  4.4000000000000D-01  1.1428607407098D+00 -1.4636123319870D-01
    46  4.5000000000000D-01  1.1582360446672D+00 -1.4218556381087D-01
    47  4.6000000000000D-01  1.1728720935626D+00 -1.3787382288466D-01
    48  4.7000000000000D-01  1.1867511034104D+00 -1.3343679828372D-01
    49  4.8000000000000D-01  1.1998554907735D+00 -1.2888326931500D-01
    50  4.9000000000000D-01  1.2121679179613D+00 -1.2421985490107D-01
    51  5.0000000000000D-01  1.2236713410993D+00 -1.1945087746053D-01
    52  5.1000000000000D-01  1.2343490609768D+00 -1.1457824377458D-01
    53  5.2000000000000D-01  1.2441847765459D+00 -1.0960134401072D-01
    54  5.3000000000000D-01  1.2531626409245D+00 -1.0451696995822D-01
    55  5.4000000000000D-01  1.2612673197207D+00 -9.9319253403235D-02
    56  5.5000000000000D-01  1.2684840514726D+00 -9.3999625436906D-02
    57  5.6000000000000D-01  1.2747987099659D+00 -8.8546797347345D-02
    58  5.7000000000000D-01  1.2801978681672D+00 -8.2946763596145D-02
    59  5.8000000000000D-01  1.2846688634784D+00 -7.7182827226154D-02
    60  5.9000000000000D-01  1.2881998639980D+00 -7.1235647886714D-02
    61  6.0000000000000D-01  1.2907799354425D+00 -6.5083312500781D-02
    62  6.1000000000000D-01  1.2923991083638D+00 -5.8701428432534D-02
    63  6.2000000000000D-01  1.2930484452736D+00 -5.2063238850134D-02
    64  6.3000000000000D-01  1.2927201072653D+00 -4.5139759812546D-02
    65  6.4000000000000D-01  1.2914074197099D+00 -3.7899938447808D-02
    66  6.5000000000000D-01  1.2891049365854D+00 -3.0310831431523D-02
    67  6.6000000000000D-01  1.2858085029880D+00 -2.2337802820238D-02
    68  6.7000000000000D-01  1.2815153153678D+00 -1.3944740147845D-02
    69  6.8000000000000D-01  1.2762239790236D+00 -5.0942875538004D-03
    70  6.9000000000000D-01  1.2699345623945D+00  4.2519054180978D-03
    71  7.0000000000000D-01  1.2626486476864D+00  1.4132920831113D-02
    72  7.1000000000000D-01  1.2543693773810D+00  2.4588296765290D-02
    73  7.2000000000000D-01  1.2451014961878D+00  3.5657740808799D-02
    74  7.3000000000000D-01  1.2348513880125D+00  4.7380834395144D-02
    75  7.4000000000000D-01  1.2236271075414D+00  5.9796729816503D-02
    76  7.5000000000000D-01  1.2114384060634D+00  7.2943841794600D-02
    77  7.6000000000000D-01  1.1982967511832D+00  8.6859535524567D-02
    78  7.7000000000000D-01  1.1842153401138D+00  1.0157981312589D-01
    79  7.8000000000000D-01  1.1692091062778D+00  1.1713900043534D-01
    80  7.9000000000000D-01  1.1532947189857D+00  1.3356943606133D-01
    81  8.0000000000000D-01  1.1364905760138D+00  1.5090116458698D-01
    82  8.1000000000000D-01  1.1188167889505D+00  1.6916163575982D-01
    83  8.2000000000000D-01  1.1002951612362D+00  1.8837541144201D-01
    84  8.3000000000000D-01  1.0809491588819D+00  2.0856388201484D-01
    85  8.4000000000000D-01  1.0608038739084D+00  2.2974499383722D-01
    86  8.5000000000000D-01  1.0398859806133D+00  2.5193298925145D-01
    87  8.6000000000000D-01  1.0182236848361D+00  2.7513816051075D-01
    88  8.7000000000000D-01  9.9584666645539D-01  2.9936661887483D-01
    89  8.8000000000000D-01  9.7278601541780D-01  3.2462007998327D-01
    90  8.9000000000000D-01  9.4907416166344D-01  3.5089566647379D-01
    91  9.0000000000000D-01  9.2474479937319D-01  3.7818572866581D-01
    92  9.1000000000000D-01  8.9983280602596D-01  4.0647768398131D-01
    93  9.2000000000000D-01  8.7437415681083D-01  4.3575387562721D-01
    94  9.3000000000000D-01  8.4840583499281D-01  4.6599145091891D-01
    95  9.4000000000000D-01  8.2196573888050D-01  4.9716225948596D-01
    96  9.5000000000000D-01  7.9509258608717D-01  5.2923277147008D-01
    97  9.6000000000000D-01  7.6782581581408D-01  5.6216401570692D-01
    98  9.7000000000000D-01  7.4020548991457D-01  5.9591153777710D-01
    99  9.8000000000000D-01  7.1227219351939D-01  6.3042537772148D-01
   100  9.9000000000000D-01  6.8406693601637D-01  6.6565006714552D-01
   101  1.0000000000000D+00  6.5563105318082D-01  7.0152464538682D-01
   102  1.0100000000000D+00  6.2700611124596D-01  7.3798269439220D-01
   103  1.0200000000000D+00  5.9823381368484D-01  7.7495239194750D-01
   104  1.0300000000000D+00  5.6935591144432D-01  8.1235658292898D-01
   105  1.0400000000000D+00  5.4041411733421D-01  8.5011286828971D-01
   106  1.0500000000000D+00  5.1145002521689D-01  8.8813371157936D-01
   107  1.0600000000000D+00  4.8250503458010D-01  9.2632656289880D-01
   108  1.0700000000000D+00  4.5362028099783D-01  9.6459400032511D-01
   109  1.0800000000000D+00  4.2483657288764D-01  1.0028338890180D+00
   110  1.0900000000000D+00  3.9619433488643D-01  1.0409395583783D+00
   111  1.1000000000000D+00  3.6773355803581D-01  1.0787999978758D+00
   112  1.1100000000000D+00  3.3949375685561D-01  1.1163000723788D+00
   113  1.1200000000000D+00  3.1151393324189D-01  1.1533207580857D+00
   114  1.1300000000000D+00  2.8383254699146D-01  1.1897394004149D+00
   115  1.1400000000000D+00  2.5648749260648D-01  1.2254299954854D+00
   116  1.1500000000000D+00  2.2951608186276D-01  1.2602634971296D+00
   117  1.1600000000000D+00  2.0295503146904D-01  1.2941081516549D+00
   118  1.1700000000000D+00  1.7684045499702D-01  1.3268298628164D+00
   119  1.1800000000000D+00  1.5120785808719D-01  1.3582925897524D+00
   120  1.1900000000000D+00  1.2609213576570D-01  1.3883587808782D+00
   121  1.2000000000000D+00  1.0152757054672D-01  1.4168898469154D+00
   122  1.2100000000000D+00  7.7547829903637D-02  1.4437466763634D+00
   123  1.2200000000000D+00  5.4185961465900D-02  1.4687901969095D+00
   124  1.2300000000000D+00  3.1474384227357D-02  1.4918819862086D+00
   125  1.2400000000000D+00  9.4448739594936D-03  1.5128849354672D+00
   126  1.2500000000000D+00 -1.1871459106575D-02  1.5316639692010D+00
   127  1.2600000000000D+00 -3.2444202301856D-02  1.5480868241216D+00
   128  1.2700000000000D+00 -5.2243684223004D-02  1.5620248898463D+00
   129  1.2800000000000D+00 -7.1241032158656D-02  1.5733541138522D+00
   130  1.2900000000000D+00 -8.9408245155257D-02  1.5819559718716D+00
   131  1.3000000000000D+00 -1.0671828458351D-01  1.5877185045863D+00
   132  1.3100000000000D+00 -1.2314518403909D-01  1.5905374207855D+00
   133  1.3200000000000D+00 -1.3866417995433D-01  1.5903172645637D+00
   134  1.3300000000000D+00 -1.5325186435036D-01  1.5869726444562D+00
   135  1.3400000000000D+00 -1.6688636082183D-01  1.5804295202498D+00
   136  1.3500000000000D+00 -1.7954752392609D-01  1.5706265389698D+00
   137  1.3600000000000D+00 -1.9121716277581D-01  1.5575164143618D+00
   138  1.3700000000000D+00 -2.0187928805138D-01  1.5410673366362D+00
   139  1.3800000000000D+00 -2.1152038114502D-01  1.5212643973974D+00
   140  1.3900000000000D+00 -2.2012968481591D-01  1.4981110171728D+00
   141  1.4000000000000D+00 -2.2769951131386D-01  1.4716303483764D+00
   142  1.4100000000000D+00 -2.3422556574331D-01  1.4418666343528D+00
   143  1.4200000000000D+00 -2.3970728007335D-01  1.4088864948693D+00
   144  1.4300000000000D+00 -2.4414815055687D-01  1.3727800980538D+00
   145  1.4400000000000D+00 -2.4755607494250D-01  1.3336621930682D+00
   146  1.4500000000000D+00 -2.4994367703295D-01  1.2916729424209D+00
   147  1.4600000000000D+00 -2.5132861234663D-01  1.2469785177036D+00
   148  1.4700000000000D+00 -2.5173384155626D-01  1.1997713941139D+00
   149  1.4800000000000D+00 -2.5118785702612D-01  1.1502702743355D+00
   150  1.4900000000000D+00 -2.4972485207589D-01  1.0987195886053D+00
   151  1.5000000000000D+00 -2.4738480621072D-01  1.0453884546330D+00
   152  1.5100000000000D+00 -2.4421347853035D-01  9.9056905406700D-01
   153  1.5200000000000D+00 -2.4026227384644D-01  9.3457427569489D-01
   154  1.5300000000000D+00 -2.3558796698367D-01  8.7773455609697D-01
   155  1.5400000000000D+00 -2.3025225015532D-01  8.2039376943772D-01
   156  1.5500000000000D+00 -2.2432107348300D-01  7.6290403824532D-01
   157  1.5600000000000D+00 -2.1786373529835D-01  7.0561924290278D-01
   158  1.5700000000000D+00 -2.1095176055572D-01  6.4888765185693D-01
   159  1.5800000000000D+00 -2.0365715062645D-01  5.9304085117057D-01
   160  1.5900000000000D+00 -1.9605131500195D-01  5.3838800870612D-01
   161  1.6000000000000D+00 -1.8820172242583D-01  4.8519601643733D-01
   162  1.6100000000000D+00 -1.8016840495779D-01  4.3366800937324D-01
   163  1.6200000000000D+00 -1.7200481224462D-01  3.8395632182671D-01
   164  1.6300000000000D+00 -1.6375766660797D-01  3.3616787909589D-01
   165  1.6400000000000D+00 -1.5547001095678D-01  2.9038743983000D-01
   166  1.6500000000000D+00 -1.4718401653469D-01  2.4669986353983D-01
   167  1.6600000000000D+00 -1.3893950026123D-01  2.0517967344516D-01
   168  1.6700000000000D+00 -1.3077366228880D-01  1.6588905341982D-01
   169  1.6800000000000D+00 -1.2272134520889D-01  1.2888061142679D-01
   170  1.6900000000000D+00 -1.1481478492087D-01  9.4195825972984D-02
   171  1.7000000000000D+00 -1.0708360401729D-01  6.1865360092707D-02
   172  1.7100000000000D+00 -9.9554744997090D-02  3.1908859731204D-02
   173  1.7200000000000D+00 -9.2252433321283D-02  4.3349221507909D-03
   174  1.7300000000000D+00 -8.5198155850694D-02 -2.0858873556350D-02
   175  1.7400000000000D+00 -7.8410655750567D-02 -4.3685869489597D-02
   176  1.7500000000000D+00 -7.1905942590444D-02 -6.4170170825291D-02
   177  1.7600000000000D+00 -6.5697318822693D-02 -8.2346421796548D-02
   178  1.7700000000000D+00 -5.9795420840650D-02 -9.8259523275238D-02
   179  1.7800000000000D+00 -5.4208275982292D-02 -1.1196428642745D-01
   180  1.7900000000000D+00 -4.8941373109725D-02 -1.2352503230897D-01
   181  1.8000000000000D+00 -4.3997748272269D-02 -1.3301513128065D-01
   182  1.8100000000000D+00 -3.9378082779893D-02 -1.4051649336742D-01
   183  1.8200000000000D+00 -3.5080814869249D-02 -1.4611900477976D-01
   184  1.8300000000000D+00 -3.1102262556248D-02 -1.4991992062135D-01
   185  1.8400000000000D+00 -2.7436758099796D-02 -1.5202321212765D-01
   186  1.8500000000000D+00 -2.4076792244628D-02 -1.5253887608915D-01
   187  1.8600000000000D+00 -2.1013167775346D-02 -1.5158220848926D-01
   188  1.8700000000000D+00 -1.8235161198818D-02 -1.4927304733013D-01
   189  1.8800000000000D+00 -1.5730691269881D-02 -1.4573499004537D-01
   190  1.8900000000000D+00 -1.3486493688620D-02 -1.4109458837218D-01
   191  1.9000000000000D+00 -1.1488300184754D-02 -1.3548052812279D-01
   192  1.9100000000000D+00 -9.7210214309869D-03 -1.2902279628590D-01
   193  1.9200000000000D+00 -8.1689320763771D-03 -1.2185184254933D-01
   194  1.9300000000000D+00 -6.8158569147933D-03 -1.1409773946433D-01
   195  1.9400000000000D+00 -5.6453569947825D-03 -1.0588934619400D-01
   196  1.9500000000000D+00 -4.6409142240935D-03 -9.7353481963727D-02
   197  1.9600000000000D+00 -3.7861134578756D-03 -8.8614113436788D-02
   198  1.9700000000000D+00 -3.0648209477094D-03 -7.9791560709723D-02
   199  1.9800000000000D+00 -2.4613573583094D-03 -7.1001729482729D-02
   200  1.9900000000000D+00 -1.9606655836565D-03 -6.2355368366800D-02
   201  2.0000000000000D+00 -1.5484702319386D-03 -5.3957364531192D-02
   202  2.0100000000000D+00 -1.2114299562199D-03 -4.5906072670544D-02
   203  2.0200000000000D+00 -9.3727989218489D-04 -3.8292688817762D-02
   204  2.0300000000000D+00 -7.1496391446701D-04 -3.1200670185385D-02
   205  2.0400000000000D+00 -5.3475675752457D-04 -2.4705200808984D-02
   206  2.0500000000000D+00 -3.8846979460726D-04 -1.8877461330726D-02
   207  2.0600000000000D+00 -2.6916407877836D-04 -1.3765395948535D-02
   208  2.0700000000000D+00 -1.7162964404389D-04 -9.4028199251952D-03
   209  2.0800000000000D+00 -9.2605090778218D-05 -5.8390305286704D-03
   210  2.0900000000000D+00 -3.0749409807839D-05 -3.1631556717940D-03
   211  2.1000000000000D+00  1.5053550449943D-05 -1.4216215643994D-03
   212  2.1100000000000D+00  4.0836995111142D-05 -4.5615834690684D-04
   213  2.1200000000000D+00  4.3129688966479D-05 -4.0257654505828D-05
   214  2.1300000000000D+00  2.5430918829731D-05  5.8007803460209D-05
   215  2.1400000000000D+00  3.7430612040128D-06  1.3461252280840D-05
   216  2.1500000000000D+00 -5.5813808963664D-06 -2.4321669699516D-05
   217  2.1600000000000D+00 -4.2615484055021D-06 -2.1049058658638D-05
   218  2.1700000000000D+00  4.2389659377764D-07  1.3067879130173D-06
   219  2.1800000000000D+00  1.2887110895711D-06  4.3677267239360D-06
   220  2.1900000000000D+00  5.1367331973587D-07  1.8658119820826D-06
   221  2.2000000000000D+00 -9.5716187410151D-08  2.8545854859299D-07
   222  2.2100000000000D+00 -1.1760178026924D-07  3.5072890402285D-07
   223  2.2200000000000D+00 -1.2470481861040D-09  3.7191260419239D-09
   224  2.2300000000000D+00  0.0000000000000D+00  0.0000000000000D+00
   225  2.2400000000000D+00  0.0000000000000D+00  0.0000000000000D+00
   226  2.2500000000000D+00  0.0000000000000D+00  0.0000000000000D+00
   227  2.2600000000000D+00  0.0000000000000D+00  0.0000000000000D+00
   228  2.2700000000000D+00  0.0000000000000D+00  0.0000000000000D+00
   229  2.2800000000000D+00  0.0000000000000D+00  0.0000000000000D+00
   230  2.2900000000000D+00  0.0000000000000D+00  0.0000000000000D+00
   231  2.3000000000000D+00  0.0000000000000D+00  0.0000000000000D+00
   232  2.3100000000000D+00  0.0000000000000D+00  0.0000000000000D+00
   233  2.3200000000000D+00  0.0000000000000D+00  0.0000000000000D+00
   234  2.3300000000000D+00  0.0000000000000D+00  0.0000000000000D+00
   235  2.3400000000000D+00  0.0000000000000D+00  0.0000000000000D+00
   236  2.3500000000000D+00  0.0000000000000D+00  0.0000000000000D+00
   237  2.3600000000000D+00  0.0000000000000D+00  0.0000000000000D+00
   238  2.3700000000000D+00  0.0000000000000D+00  0.0000000000000D+00
   239  2.3800000000000D+00  0.0000000000000D+00  0.0000000000000D+00
   240  2.3900000000000D+00  0.0000000000000D+00  0.0000000000000D+00
   241  2.4000000000000D+00  0.0000000000000D+00  0.0000000000000D+00
   242  2.4100000000000D+00  0.0000000000000D+00  0.0000000000000D+00
   243  2.4200000000000D+00  0.0000000000000D+00  0.0000000000000D+00
   244  2.4300000000000D+00  0.0000000000000D+00  0.0000000000000D+00
   245  2.4400000000000D+00  0.0000000000000D+00  0.0000000000000D+00
   246  2.4500000000000D+00  0.0000000000000D+00  0.0000000000000D+00
   247  2.4600000000000D+00  0.0000000000000D+00  0.0000000000000D+00
   248  2.4700000000000D+00  0.0000000000000D+00  0.0000000000000D+00
   249  2.4800000000000D+00  0.0000000000000D+00  0.0000000000000D+00
   250  2.4900000000000D+00  0.0000000000000D+00  0.0000000000000D+00
   251  2.5000000000000D+00  0.0000000000000D+00  0.0000000000000D+00
   252  2.5100000000000D+00  0.0000000000000D+00  0.0000000000000D+00
   253  2.5200000000000D+00  0.0000000000000D+00  0.0000000000000D+00
   254  2.5300000000000D+00  0.0000000000000D+00  0.0000000000000D+00
   255  2.5400000000000D+00  0.0000000000000D+00  0.0000000000000D+00
   256  2.5500000000000D+00  0.0000000000000D+00  0.0000000000000D+00
   257  2.5600000000000D+00  0.0000000000000D+00  0.0000000000000D+00
   258  2.5700000000000D+00  0.0000000000000D+00  0.0000000000000D+00
   259  2.5800000000000D+00  0.0000000000000D+00  0.0000000000000D+00
   260  2.5900000000000D+00  0.0000000000000D+00  0.0000000000000D+00
   261  2.6000000000000D+00  0.0000000000000D+00  0.0000000000000D+00
   262  2.6100000000000D+00  0.0000000000000D+00  0.0000000000000D+00
   263  2.6200000000000D+00  0.0000000000000D+00  0.0000000000000D+00
   264  2.6300000000000D+00  0.0000000000000D+00  0.0000000000000D+00
   265  2.6400000000000D+00  0.0000000000000D+00  0.0000000000000D+00
   266  2.6500000000000D+00  0.0000000000000D+00  0.0000000000000D+00
   267  2.6600000000000D+00  0.0000000000000D+00  0.0000000000000D+00
   268  2.6700000000000D+00  0.0000000000000D+00  0.0000000000000D+00
   269  2.6800000000000D+00  0.0000000000000D+00  0.0000000000000D+00
   270  2.6900000000000D+00  0.0000000000000D+00  0.0000000000000D+00
   271  2.7000000000000D+00  0.0000000000000D+00  0.0000000000000D+00
   272  2.7100000000000D+00  0.0000000000000D+00  0.0000000000000D+00
   273  2.7200000000000D+00  0.0000000000000D+00  0.0000000000000D+00
   274  2.7300000000000D+00  0.0000000000000D+00  0.0000000000000D+00
   275  2.7400000000000D+00  0.0000000000000D+00  0.0000000000000D+00
   276  2.7500000000000D+00  0.0000000000000D+00  0.0000000000000D+00
   277  2.7600000000000D+00  0.0000000000000D+00  0.0000000000000D+00
   278  2.7700000000000D+00  0.0000000000000D+00  0.0000000000000D+00
   279  2.7800000000000D+00  0.0000000000000D+00  0.0000000000000D+00
   280  2.7900000000000D+00  0.0000000000000D+00  0.0000000000000D+00
   281  2.8000000000000D+00  0.0000000000000D+00  0.0000000000000D+00
   282  2.8100000000000D+00  0.0000000000000D+00  0.0000000000000D+00
   283  2.8200000000000D+00  0.0000000000000D+00  0.0000000000000D+00
   284  2.8300000000000D+00  0.0000000000000D+00  0.0000000000000D+00
   285  2.8400000000000D+00  0.0000000000000D+00  0.0000000000000D+00
   286  2.8500000000000D+00  0.0000000000000D+00  0.0000000000000D+00
   287  2.8600000000000D+00  0.0000000000000D+00  0.0000000000000D+00
   288  2.8700000000000D+00  0.0000000000000D+00  0.0000000000000D+00
   289  2.8800000000000D+00  0.0000000000000D+00  0.0000000000000D+00
   290  2.8900000000000D+00  0.0000000000000D+00  0.0000000000000D+00
   291  2.9000000000000D+00  0.0000000000000D+00  0.0000000000000D+00
   292  2.9100000000000D+00  0.0000000000000D+00  0.0000000000000D+00
   293  2.9200000000000D+00  0.0000000000000D+00  0.0000000000000D+00
   294  2.9300000000000D+00  0.0000000000000D+00  0.0000000000000D+00
   295  2.9400000000000D+00  0.0000000000000D+00  0.0000000000000D+00
   296  2.9500000000000D+00  0.0000000000000D+00  0.0000000000000D+00
   297  2.9600000000000D+00  0.0000000000000D+00  0.0000000000000D+00
   298  2.9700000000000D+00  0.0000000000000D+00  0.0000000000000D+00
   299  2.9800000000000D+00  0.0000000000000D+00  0.0000000000000D+00
   300  2.9900000000000D+00  0.0000000000000D+00  0.0000000000000D+00
   301  3.0000000000000D+00  0.0000000000000D+00  0.0000000000000D+00
   302  3.0100000000000D+00  0.0000000000000D+00  0.0000000000000D+00
   303  3.0200000000000D+00  0.0000000000000D+00  0.0000000000000D+00
   304  3.0300000000000D+00  0.0000000000000D+00  0.0000000000000D+00
   305  3.0400000000000D+00  0.0000000000000D+00  0.0000000000000D+00
   306  3.0500000000000D+00  0.0000000000000D+00  0.0000000000000D+00
   307  3.0600000000000D+00  0.0000000000000D+00  0.0000000000000D+00
   308  3.0700000000000D+00  0.0000000000000D+00  0.0000000000000D+00
   309  3.0800000000000D+00  0.0000000000000D+00  0.0000000000000D+00
   310  3.0900000000000D+00  0.0000000000000D+00  0.0000000000000D+00
   311  3.1000000000000D+00  0.0000000000000D+00  0.0000000000000D+00
   312  3.1100000000000D+00  0.0000000000000D+00  0.0000000000000D+00
   313  3.1200000000000D+00  0.0000000000000D+00  0.0000000000000D+00
   314  3.1300000000000D+00  0.0000000000000D+00  0.0000000000000D+00
   315  3.1400000000000D+00  0.0000000000000D+00  0.0000000000000D+00
   316  3.1500000000000D+00  0.0000000000000D+00  0.0000000000000D+00
   317  3.1600000000000D+00  0.0000000000000D+00  0.0000000000000D+00
   318  3.1700000000000D+00  0.0000000000000D+00  0.0000000000000D+00
   319  3.1800000000000D+00  0.0000000000000D+00  0.0000000000000D+00
   320  3.1900000000000D+00  0.0000000000000D+00  0.0000000000000D+00
   321  3.2000000000000D+00  0.0000000000000D+00  0.0000000000000D+00
   322  3.2100000000000D+00  0.0000000000000D+00  0.0000000000000D+00
   323  3.2200000000000D+00  0.0000000000000D+00  0.0000000000000D+00
   324  3.2300000000000D+00  0.0000000000000D+00  0.0000000000000D+00
   325  3.2400000000000D+00  0.0000000000000D+00  0.0000000000000D+00
   326  3.2500000000000D+00  0.0000000000000D+00  0.0000000000000D+00
   327  3.2600000000000D+00  0.0000000000000D+00  0.0000000000000D+00
   328  3.2700000000000D+00  0.0000000000000D+00  0.0000000000000D+00
   329  3.2800000000000D+00  0.0000000000000D+00  0.0000000000000D+00
   330  3.2900000000000D+00  0.0000000000000D+00  0.0000000000000D+00
   331  3.3000000000000D+00  0.0000000000000D+00  0.0000000000000D+00
   332  3.3100000000000D+00  0.0000000000000D+00  0.0000000000000D+00
   333  3.3200000000000D+00  0.0000000000000D+00  0.0000000000000D+00
   334  3.3300000000000D+00  0.0000000000000D+00  0.0000000000000D+00
   335  3.3400000000000D+00  0.0000000000000D+00  0.0000000000000D+00
   336  3.3500000000000D+00  0.0000000000000D+00  0.0000000000000D+00
   337  3.3600000000000D+00  0.0000000000000D+00  0.0000000000000D+00
   338  3.3700000000000D+00  0.0000000000000D+00  0.0000000000000D+00
   339  3.3800000000000D+00  0.0000000000000D+00  0.0000000000000D+00
   340  3.3900000000000D+00  0.0000000000000D+00  0.0000000000000D+00
   341  3.4000000000000D+00  0.0000000000000D+00  0.0000000000000D+00
   342  3.4100000000000D+00  0.0000000000000D+00  0.0000000000000D+00
   343  3.4200000000000D+00  0.0000000000000D+00  0.0000000000000D+00
   344  3.4300000000000D+00  0.0000000000000D+00  0.0000000000000D+00
   345  3.4400000000000D+00  0.0000000000000D+00  0.0000000000000D+00
   346  3.4500000000000D+00  0.0000000000000D+00  0.0000000000000D+00
   347  3.4600000000000D+00  0.0000000000000D+00  0.0000000000000D+00
   348  3.4700000000000D+00  0.0000000000000D+00  0.0000000000000D+00
   349  3.4800000000000D+00  0.0000000000000D+00  0.0000000000000D+00
   350  3.4900000000000D+00  0.0000000000000D+00  0.0000000000000D+00
   351  3.5000000000000D+00  0.0000000000000D+00  0.0000000000000D+00
   352  3.5100000000000D+00  0.0000000000000D+00  0.0000000000000D+00
   353  3.5200000000000D+00  0.0000000000000D+00  0.0000000000000D+00
   354  3.5300000000000D+00  0.0000000000000D+00  0.0000000000000D+00
   355  3.5400000000000D+00  0.0000000000000D+00  0.0000000000000D+00
   356  3.5500000000000D+00  0.0000000000000D+00  0.0000000000000D+00
   357  3.5600000000000D+00  0.0000000000000D+00  0.0000000000000D+00
   358  3.5700000000000D+00  0.0000000000000D+00  0.0000000000000D+00
   359  3.5800000000000D+00  0.0000000000000D+00  0.0000000000000D+00
   360  3.5900000000000D+00  0.0000000000000D+00  0.0000000000000D+00
   361  3.6000000000000D+00  0.0000000000000D+00  0.0000000000000D+00
   362  3.6100000000000D+00  0.0000000000000D+00  0.0000000000000D+00
   363  3.6200000000000D+00  0.0000000000000D+00  0.0000000000000D+00
   364  3.6300000000000D+00  0.0000000000000D+00  0.0000000000000D+00
   365  3.6400000000000D+00  0.0000000000000D+00  0.0000000000000D+00
   366  3.6500000000000D+00  0.0000000000000D+00  0.0000000000000D+00
   367  3.6600000000000D+00  0.0000000000000D+00  0.0000000000000D+00
   368  3.6700000000000D+00  0.0000000000000D+00  0.0000000000000D+00
   369  3.6800000000000D+00  0.0000000000000D+00  0.0000000000000D+00
   370  3.6900000000000D+00  0.0000000000000D+00  0.0000000000000D+00
   371  3.7000000000000D+00  0.0000000000000D+00  0.0000000000000D+00
   372  3.7100000000000D+00  0.0000000000000D+00  0.0000000000000D+00
   373  3.7200000000000D+00  0.0000000000000D+00  0.0000000000000D+00
   374  3.7300000000000D+00  0.0000000000000D+00  0.0000000000000D+00
   375  3.7400000000000D+00  0.0000000000000D+00  0.0000000000000D+00
   376  3.7500000000000D+00  0.0000000000000D+00  0.0000000000000D+00
   377  3.7600000000000D+00  0.0000000000000D+00  0.0000000000000D+00
   378  3.7700000000000D+00  0.0000000000000D+00  0.0000000000000D+00
   379  3.7800000000000D+00  0.0000000000000D+00  0.0000000000000D+00
   380  3.7900000000000D+00  0.0000000000000D+00  0.0000000000000D+00
   381  3.8000000000000D+00  0.0000000000000D+00  0.0000000000000D+00
   382  3.8100000000000D+00  0.0000000000000D+00  0.0000000000000D+00
   383  3.8200000000000D+00  0.0000000000000D+00  0.0000000000000D+00
   384  3.8300000000000D+00  0.0000000000000D+00  0.0000000000000D+00
   385  3.8400000000000D+00  0.0000000000000D+00  0.0000000000000D+00
   386  3.8500000000000D+00  0.0000000000000D+00  0.0000000000000D+00
   387  3.8600000000000D+00  0.0000000000000D+00  0.0000000000000D+00
   388  3.8700000000000D+00  0.0000000000000D+00  0.0000000000000D+00
   389  3.8800000000000D+00  0.0000000000000D+00  0.0000000000000D+00
   390  3.8900000000000D+00  0.0000000000000D+00  0.0000000000000D+00
   391  3.9000000000000D+00  0.0000000000000D+00  0.0000000000000D+00
   392  3.9100000000000D+00  0.0000000000000D+00  0.0000000000000D+00
   393  3.9200000000000D+00  0.0000000000000D+00  0.0000000000000D+00
   394  3.9300000000000D+00  0.0000000000000D+00  0.0000000000000D+00
   395  3.9400000000000D+00  0.0000000000000D+00  0.0000000000000D+00
   396  3.9500000000000D+00  0.0000000000000D+00  0.0000000000000D+00
   397  3.9600000000000D+00  0.0000000000000D+00  0.0000000000000D+00
   398  3.9700000000000D+00  0.0000000000000D+00  0.0000000000000D+00
   399  3.9800000000000D+00  0.0000000000000D+00  0.0000000000000D+00
   400  3.9900000000000D+00  0.0000000000000D+00  0.0000000000000D+00
   401  4.0000000000000D+00  0.0000000000000D+00  0.0000000000000D+00
   402  4.0100000000000D+00  0.0000000000000D+00  0.0000000000000D+00
   403  4.0200000000000D+00  0.0000000000000D+00  0.0000000000000D+00
   404  4.0300000000000D+00  0.0000000000000D+00  0.0000000000000D+00
   405  4.0400000000000D+00  0.0000000000000D+00  0.0000000000000D+00
   406  4.0500000000000D+00  0.0000000000000D+00  0.0000000000000D+00
   407  4.0600000000000D+00  0.0000000000000D+00  0.0000000000000D+00
   408  4.0700000000000D+00  0.0000000000000D+00  0.0000000000000D+00
   409  4.0800000000000D+00  0.0000000000000D+00  0.0000000000000D+00
   410  4.0900000000000D+00  0.0000000000000D+00  0.0000000000000D+00
   411  4.1000000000000D+00  0.0000000000000D+00  0.0000000000000D+00
   412  4.1100000000000D+00  0.0000000000000D+00  0.0000000000000D+00
   413  4.1200000000000D+00  0.0000000000000D+00  0.0000000000000D+00
   414  4.1300000000000D+00  0.0000000000000D+00  0.0000000000000D+00
   415  4.1400000000000D+00  0.0000000000000D+00  0.0000000000000D+00
   416  4.1500000000000D+00  0.0000000000000D+00  0.0000000000000D+00
   417  4.1600000000000D+00  0.0000000000000D+00  0.0000000000000D+00
   418  4.1700000000000D+00  0.0000000000000D+00  0.0000000000000D+00
   419  4.1800000000000D+00  0.0000000000000D+00  0.0000000000000D+00
   420  4.1900000000000D+00  0.0000000000000D+00  0.0000000000000D+00
   421  4.2000000000000D+00  0.0000000000000D+00  0.0000000000000D+00
   422  4.2100000000000D+00  0.0000000000000D+00  0.0000000000000D+00