Ge    ONCVPSP-3.3.0  r_core=   1.91022   1.82122   1.91022
     32.0000     14.0000      220408    zatom,zion,pspd
     8       2   2     4   600     0    pspcod,pspxc,lmax,lloc,mmax,r2well
  5.99000000  0.00000000  0.00000000    rchrg fchrg qchrg
     2     2     2     0     0    nproj
     1     1           extension_switch
   0                         6.3768441539128D+00  5.9435886082502D-01
     1  0.0000000000000D+00 -3.9219738567908D-12 -5.5628557316112D-12
     2  1.0000000000000D-02  3.4752986012200D-02 -2.1599448801349D-02
     3  2.0000000000000D-02  6.9477241118366D-02 -4.3166035565793D-02
     4  3.0000000000000D-02  1.0414407980148D-01 -6.4666904866680D-02
     5  4.0000000000000D-02  1.3872490714283D-01 -8.6069214705773D-02
     6  5.0000000000000D-02  1.7319126367271D-01 -1.0734014374583D-01
     7  6.0000000000000D-02  2.0751486968598D-01 -1.2844689916130D-01
     8  7.0000000000000D-02  2.4166766884832D-01 -1.4935672530661D-01
     9  8.0000000000000D-02  2.7562187092360D-01 -1.7003691339596D-01
    10  9.0000000000000D-02  3.0934999345707D-01 -1.9045481238179D-01
    11  1.0000000000000D-01  3.4282490225519D-01 -2.1057784121055D-01
    12  1.1000000000000D-01  3.7601985050941D-01 -2.3037350262550D-01
    13  1.2000000000000D-01  4.0890851641886D-01 -2.4980939867508D-01
    14  1.3000000000000D-01  4.4146503917505D-01 -2.6885324807419D-01
    15  1.4000000000000D-01  4.7366405318097D-01 -2.8747290555243D-01
    16  1.5000000000000D-01  5.0548072038665D-01 -3.0563638330995D-01
    17  1.6000000000000D-01  5.3689076063386D-01 -3.2331187468659D-01
    18  1.7000000000000D-01  5.6787047991364D-01 -3.4046778013451D-01
    19  1.8000000000000D-01  5.9839679645209D-01 -3.5707273556841D-01
    20  1.9000000000000D-01  6.2844726455202D-01 -3.7309564315023D-01
    21  2.0000000000000D-01  6.5800009613064D-01 -3.8850570454792D-01
    22  2.1000000000000D-01  6.8703417990649D-01 -4.0327245669013D-01
    23  2.2000000000000D-01  7.1552909820206D-01 -4.1736581001978D-01
    24  2.3000000000000D-01  7.4346514134205D-01 -4.3075608923178D-01
    25  2.4000000000000D-01  7.7082331964094D-01 -4.4341407646085D-01
    26  2.5000000000000D-01  7.9758537298710D-01 -4.5531105686701D-01
    27  2.6000000000000D-01  8.2373377804475D-01 -4.6641886654756D-01
    28  2.7000000000000D-01  8.4925175310827D-01 -4.7670994268599D-01
    29  2.8000000000000D-01  8.7412326065725D-01 -4.8615737583003D-01
    30  2.9000000000000D-01  8.9833300767383D-01 -4.9473496417332D-01
    31  3.0000000000000D-01  9.2186644379676D-01 -5.0241726969774D-01
    32  3.1000000000000D-01  9.4470975739924D-01 -5.0917967601676D-01
    33  3.2000000000000D-01  9.6684986968980D-01 -5.1499844774422D-01
    34  3.3000000000000D-01  9.8827442694703D-01 -5.1985079119743D-01
    35  3.4000000000000D-01  1.0089717910097D+00 -5.2371491622907D-01
    36  3.5000000000000D-01  1.0289310281546D+00 -5.2657009896906D-01
    37  3.6000000000000D-01  1.0481418965037D+00 -5.2839674524462D-01
    38  3.7000000000000D-01  1.0665948321106D+00 -5.2917645443563D-01
    39  3.8000000000000D-01  1.0842809338852D+00 -5.2889208351193D-01
    40  3.9000000000000D-01  1.1011919475211D+00 -5.2752781099004D-01
    41  4.0000000000000D-01  1.1173202485972D+00 -5.2506920053888D-01
    42  4.1000000000000D-01  1.1326588250303D+00 -5.2150326395774D-01
    43  4.2000000000000D-01  1.1472012590571D+00 -5.1681852324386D-01
    44  4.3000000000000D-01  1.1609417089301D+00 -5.1100507146378D-01
    45  4.4000000000000D-01  1.1738748905111D+00 -5.0405463213966D-01
    46  4.5000000000000D-01  1.1859960589470D+00 -4.9596061686056D-01
    47  4.6000000000000D-01  1.1973009906127D+00 -4.8671818082933D-01
    48  4.7000000000000D-01  1.2077859655026D+00 -4.7632427605700D-01
    49  4.8000000000000D-01  1.2174477502514D+00 -4.6477770191979D-01
    50  4.9000000000000D-01  1.2262835819568D+00 -4.5207915279854D-01
    51  5.0000000000000D-01  1.2342911529760D+00 -4.3823126252566D-01
    52  5.1000000000000D-01  1.2414685968569D+00 -4.2323864537233D-01
    53  5.2000000000000D-01  1.2478144755588D+00 -4.0710793331698D-01
    54  5.3000000000000D-01  1.2533277681105D+00 -3.8984780934561D-01
    55  5.4000000000000D-01  1.2580078608378D+00 -3.7146903654564D-01
    56  5.5000000000000D-01  1.2618545392890D+00 -3.5198448276735D-01
    57  5.6000000000000D-01  1.2648679819673D+00 -3.3140914063942D-01
    58  5.7000000000000D-01  1.2670487559713D+00 -3.0976014274010D-01
    59  5.8000000000000D-01  1.2683978146276D+00 -2.8705677174051D-01
    60  5.9000000000000D-01  1.2689164971865D+00 -2.6332046535238D-01
    61  6.0000000000000D-01  1.2686065306346D+00 -2.3857481593034D-01
    62  6.1000000000000D-01  1.2674700336632D+00 -2.1284556459562D-01
    63  6.2000000000000D-01  1.2655095228128D+00 -1.8616058976704D-01
    64  6.3000000000000D-01  1.2627279207993D+00 -1.5854989000435D-01
    65  6.4000000000000D-01  1.2591285670067D+00 -1.3004556108768D-01
    66  6.5000000000000D-01  1.2547152301137D+00 -1.0068176727777D-01
    67  6.6000000000000D-01  1.2494921228063D+00 -7.0494706720940D-02
    68  6.7000000000000D-01  1.2434639185054D+00 -3.9522570984393D-02
    69  6.8000000000000D-01  1.2366357700230D+00 -7.8054987265975D-03
    70  6.9000000000000D-01  1.2290133300425D+00  2.4614476469808D-02
    71  7.0000000000000D-01  1.2206027732984D+00  5.7693484056702D-02
    72  7.1000000000000D-01  1.2114108203154D+00  9.1385880202268D-02
    73  7.2000000000000D-01  1.2014447625494D+00  1.2564431710800D-01
    74  7.3000000000000D-01  1.1907124887535D+00  1.6041981785312D-01
    75  7.4000000000000D-01  1.1792225123812D+00  1.9566185663770D-01
    76  7.5000000000000D-01  1.1669839998196D+00  2.3131844427778D-01
    77  7.6000000000000D-01  1.1540067992338D+00  2.6733621878567D-01
    78  7.7000000000000D-01  1.1403014697892D+00  3.0366054085126D-01
    79  7.8000000000000D-01  1.1258793110082D+00  3.4023559402176D-01
    80  7.9000000000000D-01  1.1107523920054D+00  3.7700448936093D-01
    81  8.0000000000000D-01  1.0949335803369D+00  4.1390937435211D-01
    82  8.1000000000000D-01  1.0784365701915D+00  4.5089154579423D-01
    83  8.2000000000000D-01  1.0612759096459D+00  4.8789156642547D-01
    84  8.3000000000000D-01  1.0434670266983D+00  5.2484938499508D-01
    85  8.4000000000000D-01  1.0250262537966D+00  5.6170445949203D-01
    86  8.5000000000000D-01  1.0059708505709D+00  5.9839588322631D-01
    87  8.6000000000000D-01  9.8631902448351D-01  6.3486251344885D-01
    88  8.7000000000000D-01  9.6608994911093D-01  6.7104310218575D-01
    89  8.8000000000000D-01  9.4530377977639D-01  7.0687642895417D-01
    90  8.9000000000000D-01  9.2398166625653D-01  7.4230143501921D-01
    91  9.0000000000000D-01  9.0214576229476D-01  7.7725735884496D-01
    92  9.1000000000000D-01  8.7981923166243D-01  8.1168387238723D-01
    93  9.2000000000000D-01  8.5702625052094D-01  8.4552121787095D-01
    94  9.3000000000000D-01  8.3379200585048D-01  8.7871034469229D-01
    95  9.4000000000000D-01  8.1014268972690D-01  9.1119304608285D-01
    96  9.5000000000000D-01  7.8610548924433D-01  9.4291209517249D-01
    97  9.6000000000000D-01  7.6170857189988D-01  9.7381138008695D-01
    98  9.7000000000000D-01  7.3698106627684D-01  1.0038360377175D+00
    99  9.8000000000000D-01  7.1195303788434D-01  1.0329325858014D+00
   100  9.9000000000000D-01  6.8665546003451D-01  1.0610490529560D+00
   101  1.0000000000000D+00  6.6112017966288D-01  1.0881351063108D+00
   102  1.0100000000000D+00  6.3537987802277D-01  1.1141421763899D+00
   103  1.0200000000000D+00  6.0946802621181D-01  1.1390235788991D+00
   104  1.0300000000000D+00  5.8341883551644D-01  1.1627346330824D+00
   105  1.0400000000000D+00  5.5726720258861D-01  1.1852327763171D+00
   106  1.0500000000000D+00  5.3104864949836D-01  1.2064776746256D+00
   107  1.0600000000000D+00  5.0479925873687D-01  1.2264313287925D+00
   108  1.0700000000000D+00  4.7855560327213D-01  1.2450581757824D+00
   109  1.0800000000000D+00  4.5235467179336D-01  1.2623251851675D+00
   110  1.0900000000000D+00  4.2623378930869D-01  1.2782019502816D+00
   111  1.1000000000000D+00  4.0023053329197D-01  1.2926607738314D+00
   112  1.1100000000000D+00  3.7438264560567D-01  1.3056767477084D+00
   113  1.1200000000000D+00  3.4872794045269D-01  1.3172278267530D+00
   114  1.1300000000000D+00  3.2330420864508D-01  1.3272948962417D+00
   115  1.1400000000000D+00  2.9814911850125D-01  1.3358618328776D+00
   116  1.1500000000000D+00  2.7330011371451D-01  1.3429155590812D+00
   117  1.1600000000000D+00  2.4879430855501D-01  1.3484460903886D+00
   118  1.1700000000000D+00  2.2466838080141D-01  1.3524465757845D+00
   119  1.1800000000000D+00  2.0095846281581D-01  1.3549133308095D+00
   120  1.1900000000000D+00  1.7770003119853D-01  1.3558458632961D+00
   121  1.2000000000000D+00  1.5492779547762D-01  1.3552468916029D+00
   122  1.2100000000000D+00  1.3267558631055D-01  1.3531223552345D+00
   123  1.2200000000000D+00  1.1097624368810D-01  1.3494814177522D+00
   124  1.2300000000000D+00  8.9861505640859D-02  1.3443364618868D+00
   125  1.2400000000000D+00  6.9361897967766D-02  1.3377030767928D+00
   126  1.2500000000000D+00  4.9506625509186D-02  1.3296000373964D+00
   127  1.2600000000000D+00  3.0323465493160D-02  1.3200492757981D+00
   128  1.2700000000000D+00  1.1838663491573D-02  1.3090758447156D+00
   129  1.2800000000000D+00 -5.9231674814661D-03  1.2967078729711D+00
   130  1.2900000000000D+00 -2.2939144195377D-02  1.2829765130307D+00
   131  1.3000000000000D+00 -3.9188206221707D-02  1.2679158806309D+00
   132  1.3100000000000D+00 -5.4651204231847D-02  1.2515629865460D+00
   133  1.3200000000000D+00 -6.9310983055342D-02  1.2339576605500D+00
   134  1.3300000000000D+00 -8.3152459001202D-02  1.2151424676576D+00
   135  1.3400000000000D+00 -9.6162690975478D-02  1.1951626167492D+00
   136  1.3500000000000D+00 -1.0833094490518D-01  1.1740658616714D+00
   137  1.3600000000000D+00 -1.1964875104866D-01  1.1519023949580D+00
   138  1.3700000000000D+00 -1.3010995377567D-01  1.1287247343096D+00
   139  1.3800000000000D+00 -1.3971075339575D-01  1.1045876019768D+00
   140  1.3900000000000D+00 -1.4844973971922D-01  1.0795477972402D+00
   141  1.4000000000000D+00 -1.5632791697812D-01  1.0536640621552D+00
   142  1.4100000000000D+00 -1.6334871981972D-01  1.0269969407691D+00
   143  1.4200000000000D+00 -1.6951802014768D-01  9.9960863203668D-01
   144  1.4300000000000D+00 -1.7484412450289D-01  9.7156283663616D-01
   145  1.4400000000000D+00 -1.7933776189963D-01  9.4292459796086D-01
   146  1.4500000000000D+00 -1.8301206188664D-01  9.1376013751399D-01
   147  1.4600000000000D+00 -1.8588252276674D-01  8.8413668498807D-01
   148  1.4700000000000D+00 -1.8796696994392D-01  8.5412230331422D-01
   149  1.4800000000000D+00 -1.8928550428063D-01  8.2378570894961D-01
   150  1.4900000000000D+00 -1.8986044065305D-01  7.9319608774502D-01
   151  1.5000000000000D+00 -1.8971623658808D-01  7.6242290666203D-01
   152  1.5100000000000D+00 -1.8887941127830D-01  7.3153572170683D-01
   153  1.5200000000000D+00 -1.8737845501144D-01  7.0060398238570D-01
   154  1.5300000000000D+00 -1.8524372928049D-01  6.6969683304182D-01
   155  1.5400000000000D+00 -1.8250735784862D-01  6.3888291142840D-01
   156  1.5500000000000D+00 -1.7920310896969D-01  6.0823014486473D-01
   157  1.5600000000000D+00 -1.7536626927687D-01  5.7780554437439D-01
   158  1.5700000000000D+00 -1.7103350948664D-01  5.4767499714465D-01
   159  1.5800000000000D+00 -1.6624274262589D-01  5.1790305773716D-01
   160  1.5900000000000D+00 -1.6103297493864D-01  4.8855273839344D-01
   161  1.6000000000000D+00 -1.5544415027142D-01  4.5968529887636D-01
   162  1.6100000000000D+00 -1.4951698820498D-01  4.3136003621081D-01
   163  1.6200000000000D+00 -1.4329281672699D-01  4.0363407476033D-01
   164  1.6300000000000D+00 -1.3681339985853D-01  3.7656215702530D-01
   165  1.6400000000000D+00 -1.3012076101105D-01  3.5019643559341D-01
   166  1.6500000000000D+00 -1.2325700260690D-01  3.2458626664358D-01
   167  1.6600000000000D+00 -1.1626412273159D-01  2.9977800543047D-01
   168  1.6700000000000D+00 -1.0918382943772D-01  2.7581480415878D-01
   169  1.6800000000000D+00 -1.0205735347054D-01  2.5273641267225D-01
   170  1.6900000000000D+00 -9.4925260088002D-02  2.3057898236850D-01
   171  1.7000000000000D+00 -8.7827260250717D-02  2.0937487073293D-01
   172  1.7100000000000D+00 -8.0802024702016D-02  1.8915246390590D-01
   173  1.7200000000000D+00 -7.3886992702800D-02  1.6993596438368D-01
   174  1.7300000000000D+00 -6.7118197601123D-02  1.5174526813922D-01
   175  1.7400000000000D+00 -6.0530092281939D-02  1.3459583529956D-01
   176  1.7500000000000D+00 -5.4155317463564D-02  1.1849820196494D-01
   177  1.7600000000000D+00 -4.8024554081340D-02  1.0345796610024D-01
   178  1.7700000000000D+00 -4.2166523934583D-02  8.9476666711088D-02
   179  1.7800000000000D+00 -3.6607950341742D-02  7.6552359529963D-02
   180  1.7900000000000D+00 -3.1373565310938D-02  6.4680326770986D-02
   181  1.8000000000000D+00 -2.6486145888984D-02  5.3853949333215D-02
   182  1.8100000000000D+00 -2.1966354481034D-02  4.4064337787376D-02
   183  1.8200000000000D+00 -1.7832619892397D-02  3.5300140644782D-02
   184  1.8300000000000D+00 -1.4101084888643D-02  2.7547761998632D-02
   185  1.8400000000000D+00 -1.0785514430665D-02  2.0791277047397D-02
   186  1.8500000000000D+00 -7.8988395849347D-03  1.5015002231884D-02
   187  1.8600000000000D+00 -5.4465477053311D-03  1.0193138760465D-02
   188  1.8700000000000D+00 -3.4286306571900D-03  6.2935588305639D-03
   189  1.8800000000000D+00 -1.8599804042505D-03  3.3080446573077D-03
   190  1.8900000000000D+00 -7.6270120233329D-04  1.2390302917814D-03
   191  1.9000000000000D+00 -1.2105628255077D-04  3.5668256221843D-05
   192  1.9100000000000D+00  1.4605571721576D-04 -4.3854911660111D-04
   193  1.9200000000000D+00  1.4325959753105D-04 -3.6143320039340D-04
   194  1.9300000000000D+00  3.3962522144156D-05 -8.1929780033955D-05
   195  1.9400000000000D+00 -3.0016089110020D-05  7.1532989746454D-05
   196  1.9500000000000D+00 -2.2266637803854D-05  5.2373114999278D-05
   197  1.9600000000000D+00  3.6723739877477D-06 -9.0208341185335D-06
   198  1.9700000000000D+00  6.3427267777051D-06 -1.5473740831759D-05
   199  1.9800000000000D+00 -1.2426200549691D-08  3.6997441307434D-08
   200  1.9900000000000D+00 -4.1697264497745D-07  1.2414833397923D-06
   201  2.0000000000000D+00 -1.8071230624677D-07  5.3804804752346D-07
   202  2.0100000000000D+00  0.0000000000000D+00  0.0000000000000D+00
   203  2.0200000000000D+00  0.0000000000000D+00  0.0000000000000D+00
   204  2.0300000000000D+00  0.0000000000000D+00  0.0000000000000D+00
   205  2.0400000000000D+00  0.0000000000000D+00  0.0000000000000D+00
   206  2.0500000000000D+00  0.0000000000000D+00  0.0000000000000D+00
   207  2.0600000000000D+00  0.0000000000000D+00  0.0000000000000D+00
   208  2.0700000000000D+00  0.0000000000000D+00  0.0000000000000D+00
   209  2.0800000000000D+00  0.0000000000000D+00  0.0000000000000D+00
   210  2.0900000000000D+00  0.0000000000000D+00  0.0000000000000D+00
   211  2.1000000000000D+00  0.0000000000000D+00  0.0000000000000D+00
   212  2.1100000000000D+00  0.0000000000000D+00  0.0000000000000D+00
   213  2.1200000000000D+00  0.0000000000000D+00  0.0000000000000D+00
   214  2.1300000000000D+00  0.0000000000000D+00  0.0000000000000D+00
   215  2.1400000000000D+00  0.0000000000000D+00  0.0000000000000D+00
   216  2.1500000000000D+00  0.0000000000000D+00  0.0000000000000D+00
   217  2.1600000000000D+00  0.0000000000000D+00  0.0000000000000D+00
   218  2.1700000000000D+00  0.0000000000000D+00  0.0000000000000D+00
   219  2.1800000000000D+00  0.0000000000000D+00  0.0000000000000D+00
   220  2.1900000000000D+00  0.0000000000000D+00  0.0000000000000D+00
   221  2.2000000000000D+00  0.0000000000000D+00  0.0000000000000D+00
   222  2.2100000000000D+00  0.0000000000000D+00  0.0000000000000D+00
   223  2.2200000000000D+00  0.0000000000000D+00  0.0000000000000D+00
   224  2.2300000000000D+00  0.0000000000000D+00  0.0000000000000D+00
   225  2.2400000000000D+00  0.0000000000000D+00  0.0000000000000D+00
   226  2.2500000000000D+00  0.0000000000000D+00  0.0000000000000D+00
   227  2.2600000000000D+00  0.0000000000000D+00  0.0000000000000D+00
   228  2.2700000000000D+00  0.0000000000000D+00  0.0000000000000D+00
   229  2.2800000000000D+00  0.0000000000000D+00  0.0000000000000D+00
   230  2.2900000000000D+00  0.0000000000000D+00  0.0000000000000D+00
   231  2.3000000000000D+00  0.0000000000000D+00  0.0000000000000D+00
   232  2.3100000000000D+00  0.0000000000000D+00  0.0000000000000D+00
   233  2.3200000000000D+00  0.0000000000000D+00  0.0000000000000D+00
   234  2.3300000000000D+00  0.0000000000000D+00  0.0000000000000D+00
   235  2.3400000000000D+00  0.0000000000000D+00  0.0000000000000D+00
   236  2.3500000000000D+00  0.0000000000000D+00  0.0000000000000D+00
   237  2.3600000000000D+00  0.0000000000000D+00  0.0000000000000D+00
   238  2.3700000000000D+00  0.0000000000000D+00  0.0000000000000D+00
   239  2.3800000000000D+00  0.0000000000000D+00  0.0000000000000D+00
   240  2.3900000000000D+00  0.0000000000000D+00  0.0000000000000D+00
   241  2.4000000000000D+00  0.0000000000000D+00  0.0000000000000D+00
   242  2.4100000000000D+00  0.0000000000000D+00  0.0000000000000D+00
   243  2.4200000000000D+00  0.0000000000000D+00  0.0000000000000D+00
   244  2.4300000000000D+00  0.0000000000000D+00  0.0000000000000D+00
   245  2.4400000000000D+00  0.0000000000000D+00  0.0000000000000D+00
   246  2.4500000000000D+00  0.0000000000000D+00  0.0000000000000D+00
   247  2.4600000000000D+00  0.0000000000000D+00  0.0000000000000D+00
   248  2.4700000000000D+00  0.0000000000000D+00  0.0000000000000D+00
   249  2.4800000000000D+00  0.0000000000000D+00  0.0000000000000D+00
   250  2.4900000000000D+00  0.0000000000000D+00  0.0000000000000D+00
   251  2.5000000000000D+00  0.0000000000000D+00  0.0000000000000D+00
   252  2.5100000000000D+00  0.0000000000000D+00  0.0000000000000D+00
   253  2.5200000000000D+00  0.0000000000000D+00  0.0000000000000D+00
   254  2.5300000000000D+00  0.0000000000000D+00  0.0000000000000D+00
   255  2.5400000000000D+00  0.0000000000000D+00  0.0000000000000D+00
   256  2.5500000000000D+00  0.0000000000000D+00  0.0000000000000D+00
   257  2.5600000000000D+00  0.0000000000000D+00  0.0000000000000D+00
   258  2.5700000000000D+00  0.0000000000000D+00  0.0000000000000D+00
   259  2.5800000000000D+00  0.0000000000000D+00  0.0000000000000D+00
   260  2.5900000000000D+00  0.0000000000000D+00  0.0000000000000D+00
   261  2.6000000000000D+00  0.0000000000000D+00  0.0000000000000D+00
   262  2.6100000000000D+00  0.0000000000000D+00  0.0000000000000D+00
   263  2.6200000000000D+00  0.0000000000000D+00  0.0000000000000D+00
   264  2.6300000000000D+00  0.0000000000000D+00  0.0000000000000D+00
   265  2.6400000000000D+00  0.0000000000000D+00  0.0000000000000D+00
   266  2.6500000000000D+00  0.0000000000000D+00  0.0000000000000D+00
   267  2.6600000000000D+00  0.0000000000000D+00  0.0000000000000D+00
   268  2.6700000000000D+00  0.0000000000000D+00  0.0000000000000D+00
   269  2.6800000000000D+00  0.0000000000000D+00  0.0000000000000D+00
   270  2.6900000000000D+00  0.0000000000000D+00  0.0000000000000D+00
   271  2.7000000000000D+00  0.0000000000000D+00  0.0000000000000D+00
   272  2.7100000000000D+00  0.0000000000000D+00  0.0000000000000D+00
   273  2.7200000000000D+00  0.0000000000000D+00  0.0000000000000D+00
   274  2.7300000000000D+00  0.0000000000000D+00  0.0000000000000D+00
   275  2.7400000000000D+00  0.0000000000000D+00  0.0000000000000D+00
   276  2.7500000000000D+00  0.0000000000000D+00  0.0000000000000D+00
   277  2.7600000000000D+00  0.0000000000000D+00  0.0000000000000D+00
   278  2.7700000000000D+00  0.0000000000000D+00  0.0000000000000D+00
   279  2.7800000000000D+00  0.0000000000000D+00  0.0000000000000D+00
   280  2.7900000000000D+00  0.0000000000000D+00  0.0000000000000D+00
   281  2.8000000000000D+00  0.0000000000000D+00  0.0000000000000D+00
   282  2.8100000000000D+00  0.0000000000000D+00  0.0000000000000D+00
   283  2.8200000000000D+00  0.0000000000000D+00  0.0000000000000D+00
   284  2.8300000000000D+00  0.0000000000000D+00  0.0000000000000D+00
   285  2.8400000000000D+00  0.0000000000000D+00  0.0000000000000D+00
   286  2.8500000000000D+00  0.0000000000000D+00  0.0000000000000D+00
   287  2.8600000000000D+00  0.0000000000000D+00  0.0000000000000D+00
   288  2.8700000000000D+00  0.0000000000000D+00  0.0000000000000D+00
   289  2.8800000000000D+00  0.0000000000000D+00  0.0000000000000D+00
   290  2.8900000000000D+00  0.0000000000000D+00  0.0000000000000D+00
   291  2.9000000000000D+00  0.0000000000000D+00  0.0000000000000D+00
   292  2.9100000000000D+00  0.0000000000000D+00  0.0000000000000D+00
   293  2.9200000000000D+00  0.0000000000000D+00  0.0000000000000D+00
   294  2.9300000000000D+00  0.0000000000000D+00  0.0000000000000D+00
   295  2.9400000000000D+00  0.0000000000000D+00  0.0000000000000D+00
   296  2.9500000000000D+00  0.0000000000000D+00  0.0000000000000D+00
   297  2.9600000000000D+00  0.0000000000000D+00  0.0000000000000D+00
   298  2.9700000000000D+00  0.0000000000000D+00  0.0000000000000D+00
   299  2.9800000000000D+00  0.0000000000000D+00  0.0000000000000D+00
   300  2.9900000000000D+00  0.0000000000000D+00  0.0000000000000D+00
   301  3.0000000000000D+00  0.0000000000000D+00  0.0000000000000D+00
   302  3.0100000000000D+00  0.0000000000000D+00  0.0000000000000D+00
   303  3.0200000000000D+00  0.0000000000000D+00  0.0000000000000D+00
   304  3.0300000000000D+00  0.0000000000000D+00  0.0000000000000D+00
   305  3.0400000000000D+00  0.0000000000000D+00  0.0000000000000D+00
   306  3.0500000000000D+00  0.0000000000000D+00  0.0000000000000D+00
   307  3.0600000000000D+00  0.0000000000000D+00  0.0000000000000D+00
   308  3.0700000000000D+00  0.0000000000000D+00  0.0000000000000D+00
   309  3.0800000000000D+00  0.0000000000000D+00  0.0000000000000D+00
   310  3.0900000000000D+00  0.0000000000000D+00  0.0000000000000D+00
   311  3.1000000000000D+00  0.0000000000000D+00  0.0000000000000D+00
   312  3.1100000000000D+00  0.0000000000000D+00  0.0000000000000D+00
   313  3.1200000000000D+00  0.0000000000000D+00  0.0000000000000D+00
   314  3.1300000000000D+00  0.0000000000000D+00  0.0000000000000D+00
   315  3.1400000000000D+00  0.0000000000000D+00  0.0000000000000D+00
   316  3.1500000000000D+00  0.0000000000000D+00  0.0000000000000D+00
   317  3.1600000000000D+00  0.0000000000000D+00  0.0000000000000D+00
   318  3.1700000000000D+00  0.0000000000000D+00  0.0000000000000D+00
   319  3.1800000000000D+00  0.0000000000000D+00  0.0000000000000D+00
   320  3.1900000000000D+00  0.0000000000000D+00  0.0000000000000D+00
   321  3.2000000000000D+00  0.0000000000000D+00  0.0000000000000D+00
   322  3.2100000000000D+00  0.0000000000000D+00  0.0000000000000D+00
   323  3.2200000000000D+00  0.0000000000000D+00  0.0000000000000D+00
   324  3.2300000000000D+00  0.0000000000000D+00  0.0000000000000D+00
   325  3.2400000000000D+00  0.0000000000000D+00  0.0000000000000D+00
   326  3.2500000000000D+00  0.0000000000000D+00  0.0000000000000D+00
   327  3.2600000000000D+00  0.0000000000000D+00  0.0000000000000D+00
   328  3.2700000000000D+00  0.0000000000000D+00  0.0000000000000D+00
   329  3.2800000000000D+00  0.0000000000000D+00  0.0000000000000D+00
   330  3.2900000000000D+00  0.0000000000000D+00  0.0000000000000D+00
   331  3.3000000000000D+00  0.0000000000000D+00  0.0000000000000D+00
   332  3.3100000000000D+00  0.0000000000000D+00  0.0000000000000D+00
   333  3.3200000000000D+00  0.0000000000000D+00  0.0000000000000D+00
   334  3.3300000000000D+00  0.0000000000000D+00  0.0000000000000D+00
   335  3.3400000000000D+00  0.0000000000000D+00  0.0000000000000D+00
   336  3.3500000000000D+00  0.0000000000000D+00  0.0000000000000D+00
   337  3.3600000000000D+00  0.0000000000000D+00  0.0000000000000D+00
   338  3.3700000000000D+00  0.0000000000000D+00  0.0000000000000D+00
   339  3.3800000000000D+00  0.0000000000000D+00  0.0000000000000D+00
   340  3.3900000000000D+00  0.0000000000000D+00  0.0000000000000D+00
   341  3.4000000000000D+00  0.0000000000000D+00  0.0000000000000D+00
   342  3.4100000000000D+00  0.0000000000000D+00  0.0000000000000D+00
   343  3.4200000000000D+00  0.0000000000000D+00  0.0000000000000D+00
   344  3.4300000000000D+00  0.0000000000000D+00  0.0000000000000D+00
   345  3.4400000000000D+00  0.0000000000000D+00  0.0000000000000D+00
   346  3.4500000000000D+00  0.0000000000000D+00  0.0000000000000D+00
   347  3.4600000000000D+00  0.0000000000000D+00  0.0000000000000D+00
   348  3.4700000000000D+00  0.0000000000000D+00  0.0000000000000D+00
   349  3.4800000000000D+00  0.0000000000000D+00  0.0000000000000D+00
   350  3.4900000000000D+00  0.0000000000000D+00  0.0000000000000D+00
   351  3.5000000000000D+00  0.0000000000000D+00  0.0000000000000D+00
   352  3.5100000000000D+00  0.0000000000000D+00  0.0000000000000D+00
   353  3.5200000000000D+00  0.0000000000000D+00  0.0000000000000D+00
   354  3.5300000000000D+00  0.0000000000000D+00  0.0000000000000D+00
   355  3.5400000000000D+00  0.0000000000000D+00  0.0000000000000D+00
   356  3.5500000000000D+00  0.0000000000000D+00  0.0000000000000D+00
   357  3.5600000000000D+00  0.0000000000000D+00  0.0000000000000D+00
   358  3.5700000000000D+00  0.0000000000000D+00  0.0000000000000D+00
   359  3.5800000000000D+00  0.0000000000000D+00  0.0000000000000D+00
   360  3.5900000000000D+00  0.0000000000000D+00  0.0000000000000D+00
   361  3.6000000000000D+00  0.0000000000000D+00  0.0000000000000D+00
   362  3.6100000000000D+00  0.0000000000000D+00  0.0000000000000D+00
   363  3.6200000000000D+00  0.0000000000000D+00  0.0000000000000D+00
   364  3.6300000000000D+00  0.0000000000000D+00  0.0000000000000D+00
   365  3.6400000000000D+00  0.0000000000000D+00  0.0000000000000D+00
   366  3.6500000000000D+00  0.0000000000000D+00  0.0000000000000D+00
   367  3.6600000000000D+00  0.0000000000000D+00  0.0000000000000D+00
   368  3.6700000000000D+00  0.0000000000000D+00  0.0000000000000D+00
   369  3.6800000000000D+00  0.0000000000000D+00  0.0000000000000D+00
   370  3.6900000000000D+00  0.0000000000000D+00  0.0000000000000D+00
   371  3.7000000000000D+00  0.0000000000000D+00  0.0000000000000D+00
   372  3.7100000000000D+00  0.0000000000000D+00  0.0000000000000D+00
   373  3.7200000000000D+00  0.0000000000000D+00  0.0000000000000D+00
   374  3.7300000000000D+00  0.0000000000000D+00  0.0000000000000D+00
   375  3.7400000000000D+00  0.0000000000000D+00  0.0000000000000D+00
   376  3.7500000000000D+00  0.0000000000000D+00  0.0000000000000D+00
   377  3.7600000000000D+00  0.0000000000000D+00  0.0000000000000D+00
   378  3.7700000000000D+00  0.0000000000000D+00  0.0000000000000D+00
   379  3.7800000000000D+00  0.0000000000000D+00  0.0000000000000D+00
   380  3.7900000000000D+00  0.0000000000000D+00  0.0000000000000D+00
   381  3.8000000000000D+00  0.0000000000000D+00  0.0000000000000D+00
   382  3.8100000000000D+00  0.0000000000000D+00  0.0000000000000D+00
   383  3.8200000000000D+00  0.0000000000000D+00  0.0000000000000D+00
   384  3.8300000000000D+00  0.0000000000000D+00  0.0000000000000D+00
   385  3.8400000000000D+00  0.0000000000000D+00  0.0000000000000D+00
   386  3.8500000000000D+00  0.0000000000000D+00  0.0000000000000D+00
   387  3.8600000000000D+00  0.0000000000000D+00  0.0000000000000D+00
   388  3.8700000000000D+00  0.0000000000000D+00  0.0000000000000D+00
   389  3.8800000000000D+00  0.0000000000000D+00  0.0000000000000D+00
   390  3.8900000000000D+00  0.0000000000000D+00  0.0000000000000D+00
   391  3.9000000000000D+00  0.0000000000000D+00  0.0000000000000D+00
   392  3.9100000000000D+00  0.0000000000000D+00  0.0000000000000D+00
   393  3.9200000000000D+00  0.0000000000000D+00  0.0000000000000D+00
   394  3.9300000000000D+00  0.0000000000000D+00  0.0000000000000D+00
   395  3.9400000000000D+00  0.0000000000000D+00  0.0000000000000D+00
   396  3.9500000000000D+00  0.0000000000000D+00  0.0000000000000D+00
   397  3.9600000000000D+00  0.0000000000000D+00  0.0000000000000D+00
   398  3.9700000000000D+00  0.0000000000000D+00  0.0000000000000D+00
   399  3.9800000000000D+00  0.0000000000000D+00  0.0000000000000D+00
   400  3.9900000000000D+00  0.0000000000000D+00  0.0000000000000D+00
   401  4.0000000000000D+00  0.0000000000000D+00  0.0000000000000D+00
   402  4.0100000000000D+00  0.0000000000000D+00  0.0000000000000D+00
   403  4.0200000000000D+00  0.0000000000000D+00  0.0000000000000D+00
   404  4.0300000000000D+00  0.0000000000000D+00  0.0000000000000D+00
   405  4.0400000000000D+00  0.0000000000000D+00  0.0000000000000D+00
   406  4.0500000000000D+00  0.0000000000000D+00  0.0000000000000D+00
   407  4.0600000000000D+00  0.0000000000000D+00  0.0000000000000D+00
   408  4.0700000000000D+00  0.0000000000000D+00  0.0000000000000D+00
   409  4.0800000000000D+00  0.0000000000000D+00  0.0000000000000D+00
   410  4.0900000000000D+00  0.0000000000000D+00  0.0000000000000D+00
   411  4.1000000000000D+00  0.0000000000000D+00  0.0000000000000D+00
   412  4.1100000000000D+00  0.0000000000000D+00  0.0000000000000D+00
   413  4.1200000000000D+00  0.0000000000000D+00  0.0000000000000D+00
   414  4.1300000000000D+00  0.0000000000000D+00  0.0000000000000D+00
   415  4.1400000000000D+00  0.0000000000000D+00  0.0000000000000D+00
   416  4.1500000000000D+00  0.0000000000000D+00  0.0000000000000D+00
   417  4.1600000000000D+00  0.0000000000000D+00  0.0000000000000D+00
   418  4.1700000000000D+00  0.0000000000000D+00  0.0000000000000D+00
   419  4.1800000000000D+00  0.0000000000000D+00  0.0000000000000D+00
   420  4.1900000000000D+00  0.0000000000000D+00  0.0000000000000D+00
   421  4.2000000000000D+00  0.0000000000000D+00  0.0000000000000D+00
   422  4.2100000000000D+00  0.0000000000000D+00  0.0000000000000D+00