Ge    ONCVPSP-3.3.0  r_core=   1.82122   1.71577   2.20419
     32.0000      4.0000      220408    zatom,zion,pspd
     8       2   2     4   600     0    pspcod,pspxc,lmax,lloc,mmax,r2well
  5.99000000  0.00000000  0.00000000    rchrg fchrg qchrg
     2     2     2     0     0    nproj
     1     1           extension_switch
   0                         6.4801312066189D+00  6.4233536969187D-01
     1  0.0000000000000D+00  1.3469780846265D-11 -2.7929616952527D-11
     2  1.0000000000000D-02  2.7829708623346D-02 -1.1783404581846D-02
     3  2.0000000000000D-02  5.5662803779086D-02 -2.3582200319151D-02
     4  3.0000000000000D-02  8.3502553770533D-02 -3.5411547059420D-02
     5  4.0000000000000D-02  1.1135199112231D-01 -4.7286143424568D-02
     6  5.0000000000000D-02  1.3921379638624D-01 -5.9219999666798D-02
     7  6.0000000000000D-02  1.6709018397206D-01 -7.1226214667113D-02
     8  7.0000000000000D-02  1.9498279066188D-01 -8.3316758424322D-02
     9  8.0000000000000D-02  2.2289256745398D-01 -9.5502261354481D-02
    10  9.0000000000000D-02  2.5081967536477D-01 -1.0779181168583D-01
    11  1.0000000000000D-01  2.7876338579756D-01 -1.2019276219285D-01
    12  1.1000000000000D-01  3.0672198606406D-01 -1.3271054746532D-01
    13  1.2000000000000D-01  3.3469269061825D-01 -1.4534851285411D-01
    14  1.3000000000000D-01  3.6267155853352D-01 -1.5810775617548D-01
    15  1.4000000000000D-01  3.9065341772234D-01 -1.7098698319011D-01
    16  1.5000000000000D-01  4.1863179636345D-01 -1.8398237780195D-01
    17  1.6000000000000D-01  4.4659886196517D-01 -1.9708748784582D-01
    18  1.7000000000000D-01  4.7454536845435D-01 -2.1029312725224D-01
    19  1.8000000000000D-01  5.0246061163983D-01 -2.2358729529276D-01
    20  1.9000000000000D-01  5.3033239335626D-01 -2.3695511351983D-01
    21  2.0000000000000D-01  5.5814699455008D-01 -2.5037878092356D-01
    22  2.1000000000000D-01  5.8588915752317D-01 -2.6383754773132D-01
    23  2.2000000000000D-01  6.1354207750304D-01 -2.7730770817900D-01
    24  2.3000000000000D-01  6.4108740366009D-01 -2.9076261248165D-01
    25  2.4000000000000D-01  6.6850524964367D-01 -3.0417269813040D-01
    26  2.5000000000000D-01  6.9577421365946D-01 -3.1750554053865D-01
    27  2.6000000000000D-01  7.2287140806098D-01 -3.3072592295783D-01
    28  2.7000000000000D-01  7.4977249837830D-01 -3.4379592547858D-01
    29  2.8000000000000D-01  7.7645175165774D-01 -3.5667503283046D-01
    30  2.9000000000000D-01  8.0288209393727D-01 -3.6932026059070D-01
    31  3.0000000000000D-01  8.2903517663404D-01 -3.8168629931128D-01
    32  3.1000000000000D-01  8.5488145157323D-01 -3.9372567597515D-01
    33  3.2000000000000D-01  8.8039025434123D-01 -4.0538893209528D-01
    34  3.3000000000000D-01  9.0552989560137D-01 -4.1662481767683D-01
    35  3.4000000000000D-01  9.3026775996775D-01 -4.2738050017257D-01
    36  3.5000000000000D-01  9.5457041199104D-01 -4.3760178747510D-01
    37  3.6000000000000D-01  9.7840370877177D-01 -4.4723336390802D-01
    38  3.7000000000000D-01  1.0017329186792D+00 -4.5621903810024D-01
    39  3.8000000000000D-01  1.0245228456202D+00 -4.6450200155684D-01
    40  3.9000000000000D-01  1.0467379582714D+00 -4.7202509667249D-01
    41  4.0000000000000D-01  1.0683425236578D+00 -4.7873109287427D-01
    42  4.1000000000000D-01  1.0893007444371D+00 -4.8456296952634D-01
    43  4.2000000000000D-01  1.1095768992269D+00 -4.8946420418158D-01
    44  4.3000000000000D-01  1.1291354852899D+00 -4.9337906472591D-01
    45  4.4000000000000D-01  1.1479413628809D+00 -4.9625290392735D-01
    46  4.5000000000000D-01  1.1659599005441D+00 -4.9803245487682D-01
    47  4.6000000000000D-01  1.1831571206415D+00 -4.9866612578984D-01
    48  4.7000000000000D-01  1.1994998443904D+00 -4.9810429262810D-01
    49  4.8000000000000D-01  1.2149558356837D+00 -4.9629958799834D-01
    50  4.9000000000000D-01  1.2294939429716D+00 -4.9320718479114D-01
    51  5.0000000000000D-01  1.2430842384906D+00 -4.8878507303696D-01
    52  5.1000000000000D-01  1.2556981541326D+00 -4.8299432847796D-01
    53  5.2000000000000D-01  1.2673086132645D+00 -4.7579937138489D-01
    54  5.3000000000000D-01  1.2778901578246D+00 -4.6716821418507D-01
    55  5.4000000000000D-01  1.2874190700432D+00 -4.5707269651431D-01
    56  5.5000000000000D-01  1.2958734881600D+00 -4.4548870635699D-01
    57  5.6000000000000D-01  1.3032335155387D+00 -4.3239638600064D-01
    58  5.7000000000000D-01  1.3094813226116D+00 -4.1778032159743D-01
    59  5.8000000000000D-01  1.3146012411197D+00 -4.0162971519961D-01
    60  5.9000000000000D-01  1.3185798501522D+00 -3.8393853821692D-01
    61  6.0000000000000D-01  1.3214060535304D+00 -3.6470566532986D-01
    62  6.1000000000000D-01  1.3230711481214D+00 -3.4393498798553D-01
    63  6.2000000000000D-01  1.3235688827141D+00 -3.2163550669958D-01
    64  6.3000000000000D-01  1.3228955071361D+00 -2.9782140149092D-01
    65  6.4000000000000D-01  1.3210498113389D+00 -2.7251207988028D-01
    66  6.5000000000000D-01  1.3180331542310D+00 -2.4573220199597D-01
    67  6.6000000000000D-01  1.3138494820873D+00 -2.1751168244064D-01
    68  6.7000000000000D-01  1.3085053364190D+00 -1.8788566869005D-01
    69  6.8000000000000D-01  1.3020098512410D+00 -1.5689449591179D-01
    70  6.9000000000000D-01  1.2943747397270D+00 -1.2458361820946D-01
    71  7.0000000000000D-01  1.2856142702971D+00 -9.1003516418257D-02
    72  7.1000000000000D-01  1.2757452322395D+00 -5.6209582696335D-02
    73  7.2000000000000D-01  1.2647868910159D+00 -2.0261982274931D-02
    74  7.3000000000000D-01  1.2527609334598D+00  1.6774507152156D-02
    75  7.4000000000000D-01  1.2396914031238D+00  5.4830677805171D-02
    76  7.5000000000000D-01  1.2256046260856D+00  9.3833095251943D-02
    77  7.6000000000000D-01  1.2105291275693D+00  1.3370432208176D-01
    78  7.7000000000000D-01  1.1944955397877D+00  1.7436316089594D-01
    79  7.8000000000000D-01  1.1775365014550D+00  2.1572491559125D-01
    80  7.9000000000000D-01  1.1596865494614D+00  2.5770166981532D-01
    81  8.0000000000000D-01  1.1409820032427D+00  3.0020258138374D-01
    82  8.1000000000000D-01  1.1214608424136D+00  3.4313419136235D-01
    83  8.2000000000000D-01  1.1011625782665D+00  3.8640074644186D-01
    84  8.3000000000000D-01  1.0801281197703D+00  4.2990453316015D-01
    85  8.4000000000000D-01  1.0583996347288D+00  4.7354622246352D-01
    86  8.5000000000000D-01  1.0360204067827D+00  5.1722522304342D-01
    87  8.6000000000000D-01  1.0130346889570D+00  5.6084004183736D-01
    88  8.7000000000000D-01  9.8948755447474D-01  6.0428865004195D-01
    89  8.8000000000000D-01  9.6542474556465D-01  6.4746885295769D-01
    90  8.9000000000000D-01  9.4089252100286D-01  6.9027866196176D-01
    91  9.0000000000000D-01  9.1593750312820D-01  7.3261666689219D-01
    92  9.1000000000000D-01  8.9060652507212D-01  7.7438240712410D-01
    93  9.2000000000000D-01  8.6494647893868D-01  8.1547673962240D-01
    94  9.3000000000000D-01  8.3900416566087D-01  8.5580220227116D-01
    95  9.4000000000000D-01  8.1282614724678D-01  8.9526337080171D-01
    96  9.5000000000000D-01  7.8645860211195D-01  9.3376720767444D-01
    97  9.6000000000000D-01  7.5994718417328D-01  9.7122340130961D-01
    98  9.7000000000000D-01  7.3333688635539D-01  1.0075446941114D+00
    99  9.8000000000000D-01  7.0667190913198D-01  1.0426471977868D+00
   100  9.9000000000000D-01  6.7999553469325D-01  1.0764506945254D+00
   101  1.0000000000000D+00  6.5335000729508D-01  1.1088789226803D+00
   102  1.0100000000000D+00  6.2677642030908D-01  1.1398598456644D+00
   103  1.0200000000000D+00  6.0031461045089D-01  1.1693259028694D+00
   104  1.0300000000000D+00  5.7400305962146D-01  1.1972142414989D+00
   105  1.0400000000000D+00  5.4787880475092D-01  1.2234669283099D+00
   106  1.0500000000000D+00  5.2197735598775D-01  1.2480311403541D+00
   107  1.0600000000000D+00  4.9633262352512D-01  1.2708593339207D+00
   108  1.0700000000000D+00  4.7097685331075D-01  1.2919093909859D+00
   109  1.0800000000000D+00  4.4594057183032D-01  1.3111447425903D+00
   110  1.0900000000000D+00  4.2125254010577D-01  1.3285344686819D+00
   111  1.1000000000000D+00  3.9693971699689D-01  1.3440533740712D+00
   112  1.1100000000000D+00  3.7302723184036D-01  1.3576820402738D+00
   113  1.1200000000000D+00  3.4953836641624D-01  1.3694068531092D+00
   114  1.1300000000000D+00  3.2649454616947D-01  1.3792200060701D+00
   115  1.1400000000000D+00  3.0391534057289D-01  1.3871194795682D+00
   116  1.1500000000000D+00  2.8181847246143D-01  1.3931089962941D+00
   117  1.1600000000000D+00  2.6021983613385D-01  1.3971979530067D+00
   118  1.1700000000000D+00  2.3913352395468D-01  1.3994013292149D+00
   119  1.1800000000000D+00  2.1857186115808D-01  1.3997395732911D+00
   120  1.1900000000000D+00  1.9854544851142D-01  1.3982384666606D+00
   121  1.2000000000000D+00  1.7906321246209D-01  1.3949289667910D+00
   122  1.2100000000000D+00  1.6013246234750D-01  1.3898470298203D+00
   123  1.2200000000000D+00  1.4175895422071D-01  1.3830334137279D+00
   124  1.2300000000000D+00  1.2394696082500D-01  1.3745334630040D+00
   125  1.2400000000000D+00  1.0669934720861D-01  1.3643968758836D+00
   126  1.2500000000000D+00  9.0017651460020D-02  1.3526774552479D+00
   127  1.2600000000000D+00  7.3902170029929D-02  1.3394328443331D+00
   128  1.2700000000000D+00  5.8352047082450D-02  1.3247242484607D+00
   129  1.2800000000000D+00  4.3365367315278D-02  1.3086161440254D+00
   130  1.2900000000000D+00  2.8939251683883D-02  1.2911759759925D+00
   131  1.3000000000000D+00  1.5069955455693D-02  1.2724738452000D+00
   132  1.3100000000000D+00  1.7529680344036D-03  1.2525821867527D+00
   133  1.3200000000000D+00 -1.1016886011311D-02  1.2315754408039D+00
   134  1.3300000000000D+00 -2.3245345267110D-02  1.2095297170263D+00
   135  1.3400000000000D+00 -3.4938609660434D-02  1.1865224540247D+00
   136  1.3500000000000D+00 -4.6103239061628D-02  1.1626320749825D+00
   137  1.3600000000000D+00 -5.6746052775280D-02  1.1379376407442D+00
   138  1.3700000000000D+00 -6.6874030393182D-02  1.1125185015149D+00
   139  1.3800000000000D+00 -7.6494214486884D-02  1.0864539483812D+00
   140  1.3900000000000D+00 -8.5613615507516D-02  1.0598228656719D+00
   141  1.4000000000000D+00 -9.4239119320008D-02  1.0327033852743D+00
   142  1.4100000000000D+00 -1.0237739770893D-01  1.0051725438757D+00
   143  1.4200000000000D+00 -1.1003482213051D-01  9.7730594397749D-01
   144  1.4300000000000D+00 -1.1721738106839D-01  9.4917741968859D-01
   145  1.4400000000000D+00 -1.2393060112337D-01  9.2085870788447D-01
   146  1.4500000000000D+00 -1.3017947211663D-01  8.9241912559401D-01
   147  1.4600000000000D+00 -1.3596837631716D-01  8.6392525416618D-01
   148  1.4700000000000D+00 -1.4130102187859D-01  8.3544063071089D-01
   149  1.4800000000000D+00 -1.4618038064253D-01  8.0702544745572D-01
   150  1.4900000000000D+00 -1.5060863018983D-01  7.7873625911955D-01
   151  1.5000000000000D+00 -1.5458710029299D-01  7.5062569893863D-01
   152  1.5100000000000D+00 -1.5811622355592D-01  7.2274220325786D-01
   153  1.5200000000000D+00 -1.6119549026048D-01  6.9512974505838D-01
   154  1.5300000000000D+00 -1.6382340723176D-01  6.6782757638486D-01
   155  1.5400000000000D+00 -1.6599746055237D-01  6.4086997965963D-01
   156  1.5500000000000D+00 -1.6771408198237D-01  6.1428602794098D-01
   157  1.5600000000000D+00 -1.6896861871321D-01  5.8809935347863D-01
   158  1.5700000000000D+00 -1.6975530595403D-01  5.6232792190814D-01
   159  1.5800000000000D+00 -1.7006724440455D-01  5.3698383042313D-01
   160  1.5900000000000D+00 -1.6989637444946D-01  5.1207306906666D-01
   161  1.6000000000000D+00 -1.6923348079896D-01  4.8759549026851D-01
   162  1.6100000000000D+00 -1.6806811901346D-01  4.6354422539456D-01
   163  1.6200000000000D+00 -1.6638861741159D-01  4.3990560361307D-01
   164  1.6300000000000D+00 -1.6418225024480D-01  4.1666038346412D-01
   165  1.6400000000000D+00 -1.6143538681655D-01  3.9378467058845D-01
   166  1.6500000000000D+00 -1.5813372887758D-01  3.7125125523706D-01
   167  1.6600000000000D+00 -1.5426247672951D-01  3.4903043202834D-01
   168  1.6700000000000D+00 -1.4980635278398D-01  3.2708969492013D-01
   169  1.6800000000000D+00 -1.4474968299806D-01  3.0539386719350D-01
   170  1.6900000000000D+00 -1.3907648847520D-01  2.8390534798913D-01
   171  1.7000000000000D+00 -1.3277055846589D-01  2.6258420808322D-01
   172  1.7100000000000D+00 -1.2581552857447D-01  2.4138834442490D-01
   173  1.7200000000000D+00 -1.1819495359183D-01  2.2027361023621D-01
   174  1.7300000000000D+00 -1.0989237749004D-01  1.9919394410810D-01
   175  1.7400000000000D+00 -1.0089139957765D-01  1.7810149305342D-01
   176  1.7500000000000D+00 -9.1175736245410D-02  1.5694672840663D-01
   177  1.7600000000000D+00 -8.0700474244186D-02  1.3563679464147D-01
   178  1.7700000000000D+00 -6.9461100839174D-02  1.1413561268974D-01
   179  1.7800000000000D+00 -5.7716449889289D-02  9.2788603764779D-02
   180  1.7900000000000D+00 -4.5475228500957D-02  7.1577325611516D-02
   181  1.8000000000000D+00 -3.1211129999470D-02  4.8237077641751D-02
   182  1.8100000000000D+00 -1.4355737597104D-02  2.1885042489442D-02
   183  1.8200000000000D+00 -1.0734998593493D-03  1.5362857853033D-03
   184  1.8300000000000D+00  2.8364568432595D-03 -4.3798523464533D-03
   185  1.8400000000000D+00  9.4572044902255D-04 -1.4491354079999D-03
   186  1.8500000000000D+00 -6.2226467750559D-04  9.6331386489200D-04
   187  1.8600000000000D+00 -4.2321323706317D-04  6.5397212656545D-04
   188  1.8700000000000D+00  6.3147695008183D-05 -9.9382499378607D-05
   189  1.8800000000000D+00  7.7277075448288D-05 -1.2151073869565D-04
   190  1.8900000000000D+00 -6.7675703774346D-08  2.0345536719727D-07
   191  1.9000000000000D+00 -1.7258203390467D-07  5.1883821107801D-07
   192  1.9100000000000D+00 -5.0882574166698D-09  1.5296971045245D-08
   193  1.9200000000000D+00  0.0000000000000D+00  0.0000000000000D+00
   194  1.9300000000000D+00  0.0000000000000D+00  0.0000000000000D+00
   195  1.9400000000000D+00  0.0000000000000D+00  0.0000000000000D+00
   196  1.9500000000000D+00  0.0000000000000D+00  0.0000000000000D+00
   197  1.9600000000000D+00  0.0000000000000D+00  0.0000000000000D+00
   198  1.9700000000000D+00  0.0000000000000D+00  0.0000000000000D+00
   199  1.9800000000000D+00  0.0000000000000D+00  0.0000000000000D+00
   200  1.9900000000000D+00  0.0000000000000D+00  0.0000000000000D+00
   201  2.0000000000000D+00  0.0000000000000D+00  0.0000000000000D+00
   202  2.0100000000000D+00  0.0000000000000D+00  0.0000000000000D+00
   203  2.0200000000000D+00  0.0000000000000D+00  0.0000000000000D+00
   204  2.0300000000000D+00  0.0000000000000D+00  0.0000000000000D+00
   205  2.0400000000000D+00  0.0000000000000D+00  0.0000000000000D+00
   206  2.0500000000000D+00  0.0000000000000D+00  0.0000000000000D+00
   207  2.0600000000000D+00  0.0000000000000D+00  0.0000000000000D+00
   208  2.0700000000000D+00  0.0000000000000D+00  0.0000000000000D+00
   209  2.0800000000000D+00  0.0000000000000D+00  0.0000000000000D+00
   210  2.0900000000000D+00  0.0000000000000D+00  0.0000000000000D+00
   211  2.1000000000000D+00  0.0000000000000D+00  0.0000000000000D+00
   212  2.1100000000000D+00  0.0000000000000D+00  0.0000000000000D+00
   213  2.1200000000000D+00  0.0000000000000D+00  0.0000000000000D+00
   214  2.1300000000000D+00  0.0000000000000D+00  0.0000000000000D+00
   215  2.1400000000000D+00  0.0000000000000D+00  0.0000000000000D+00
   216  2.1500000000000D+00  0.0000000000000D+00  0.0000000000000D+00
   217  2.1600000000000D+00  0.0000000000000D+00  0.0000000000000D+00
   218  2.1700000000000D+00  0.0000000000000D+00  0.0000000000000D+00
   219  2.1800000000000D+00  0.0000000000000D+00  0.0000000000000D+00
   220  2.1900000000000D+00  0.0000000000000D+00  0.0000000000000D+00
   221  2.2000000000000D+00  0.0000000000000D+00  0.0000000000000D+00
   222  2.2100000000000D+00  0.0000000000000D+00  0.0000000000000D+00
   223  2.2200000000000D+00  0.0000000000000D+00  0.0000000000000D+00
   224  2.2300000000000D+00  0.0000000000000D+00  0.0000000000000D+00
   225  2.2400000000000D+00  0.0000000000000D+00  0.0000000000000D+00
   226  2.2500000000000D+00  0.0000000000000D+00  0.0000000000000D+00
   227  2.2600000000000D+00  0.0000000000000D+00  0.0000000000000D+00
   228  2.2700000000000D+00  0.0000000000000D+00  0.0000000000000D+00
   229  2.2800000000000D+00  0.0000000000000D+00  0.0000000000000D+00
   230  2.2900000000000D+00  0.0000000000000D+00  0.0000000000000D+00
   231  2.3000000000000D+00  0.0000000000000D+00  0.0000000000000D+00
   232  2.3100000000000D+00  0.0000000000000D+00  0.0000000000000D+00
   233  2.3200000000000D+00  0.0000000000000D+00  0.0000000000000D+00
   234  2.3300000000000D+00  0.0000000000000D+00  0.0000000000000D+00
   235  2.3400000000000D+00  0.0000000000000D+00  0.0000000000000D+00
   236  2.3500000000000D+00  0.0000000000000D+00  0.0000000000000D+00
   237  2.3600000000000D+00  0.0000000000000D+00  0.0000000000000D+00
   238  2.3700000000000D+00  0.0000000000000D+00  0.0000000000000D+00
   239  2.3800000000000D+00  0.0000000000000D+00  0.0000000000000D+00
   240  2.3900000000000D+00  0.0000000000000D+00  0.0000000000000D+00
   241  2.4000000000000D+00  0.0000000000000D+00  0.0000000000000D+00
   242  2.4100000000000D+00  0.0000000000000D+00  0.0000000000000D+00
   243  2.4200000000000D+00  0.0000000000000D+00  0.0000000000000D+00
   244  2.4300000000000D+00  0.0000000000000D+00  0.0000000000000D+00
   245  2.4400000000000D+00  0.0000000000000D+00  0.0000000000000D+00
   246  2.4500000000000D+00  0.0000000000000D+00  0.0000000000000D+00
   247  2.4600000000000D+00  0.0000000000000D+00  0.0000000000000D+00
   248  2.4700000000000D+00  0.0000000000000D+00  0.0000000000000D+00
   249  2.4800000000000D+00  0.0000000000000D+00  0.0000000000000D+00
   250  2.4900000000000D+00  0.0000000000000D+00  0.0000000000000D+00
   251  2.5000000000000D+00  0.0000000000000D+00  0.0000000000000D+00
   252  2.5100000000000D+00  0.0000000000000D+00  0.0000000000000D+00
   253  2.5200000000000D+00  0.0000000000000D+00  0.0000000000000D+00
   254  2.5300000000000D+00  0.0000000000000D+00  0.0000000000000D+00
   255  2.5400000000000D+00  0.0000000000000D+00  0.0000000000000D+00
   256  2.5500000000000D+00  0.0000000000000D+00  0.0000000000000D+00
   257  2.5600000000000D+00  0.0000000000000D+00  0.0000000000000D+00
   258  2.5700000000000D+00  0.0000000000000D+00  0.0000000000000D+00
   259  2.5800000000000D+00  0.0000000000000D+00  0.0000000000000D+00
   260  2.5900000000000D+00  0.0000000000000D+00  0.0000000000000D+00
   261  2.6000000000000D+00  0.0000000000000D+00  0.0000000000000D+00
   262  2.6100000000000D+00  0.0000000000000D+00  0.0000000000000D+00
   263  2.6200000000000D+00  0.0000000000000D+00  0.0000000000000D+00
   264  2.6300000000000D+00  0.0000000000000D+00  0.0000000000000D+00
   265  2.6400000000000D+00  0.0000000000000D+00  0.0000000000000D+00
   266  2.6500000000000D+00  0.0000000000000D+00  0.0000000000000D+00
   267  2.6600000000000D+00  0.0000000000000D+00  0.0000000000000D+00
   268  2.6700000000000D+00  0.0000000000000D+00  0.0000000000000D+00
   269  2.6800000000000D+00  0.0000000000000D+00  0.0000000000000D+00
   270  2.6900000000000D+00  0.0000000000000D+00  0.0000000000000D+00
   271  2.7000000000000D+00  0.0000000000000D+00  0.0000000000000D+00
   272  2.7100000000000D+00  0.0000000000000D+00  0.0000000000000D+00
   273  2.7200000000000D+00  0.0000000000000D+00  0.0000000000000D+00
   274  2.7300000000000D+00  0.0000000000000D+00  0.0000000000000D+00
   275  2.7400000000000D+00  0.0000000000000D+00  0.0000000000000D+00
   276  2.7500000000000D+00  0.0000000000000D+00  0.0000000000000D+00
   277  2.7600000000000D+00  0.0000000000000D+00  0.0000000000000D+00
   278  2.7700000000000D+00  0.0000000000000D+00  0.0000000000000D+00
   279  2.7800000000000D+00  0.0000000000000D+00  0.0000000000000D+00
   280  2.7900000000000D+00  0.0000000000000D+00  0.0000000000000D+00
   281  2.8000000000000D+00  0.0000000000000D+00  0.0000000000000D+00
   282  2.8100000000000D+00  0.0000000000000D+00  0.0000000000000D+00
   283  2.8200000000000D+00  0.0000000000000D+00  0.0000000000000D+00
   284  2.8300000000000D+00  0.0000000000000D+00  0.0000000000000D+00
   285  2.8400000000000D+00  0.0000000000000D+00  0.0000000000000D+00
   286  2.8500000000000D+00  0.0000000000000D+00  0.0000000000000D+00
   287  2.8600000000000D+00  0.0000000000000D+00  0.0000000000000D+00
   288  2.8700000000000D+00  0.0000000000000D+00  0.0000000000000D+00
   289  2.8800000000000D+00  0.0000000000000D+00  0.0000000000000D+00
   290  2.8900000000000D+00  0.0000000000000D+00  0.0000000000000D+00
   291  2.9000000000000D+00  0.0000000000000D+00  0.0000000000000D+00
   292  2.9100000000000D+00  0.0000000000000D+00  0.0000000000000D+00
   293  2.9200000000000D+00  0.0000000000000D+00  0.0000000000000D+00
   294  2.9300000000000D+00  0.0000000000000D+00  0.0000000000000D+00
   295  2.9400000000000D+00  0.0000000000000D+00  0.0000000000000D+00
   296  2.9500000000000D+00  0.0000000000000D+00  0.0000000000000D+00
   297  2.9600000000000D+00  0.0000000000000D+00  0.0000000000000D+00
   298  2.9700000000000D+00  0.0000000000000D+00  0.0000000000000D+00
   299  2.9800000000000D+00  0.0000000000000D+00  0.0000000000000D+00
   300  2.9900000000000D+00  0.0000000000000D+00  0.0000000000000D+00
   301  3.0000000000000D+00  0.0000000000000D+00  0.0000000000000D+00
   302  3.0100000000000D+00  0.0000000000000D+00  0.0000000000000D+00
   303  3.0200000000000D+00  0.0000000000000D+00  0.0000000000000D+00
   304  3.0300000000000D+00  0.0000000000000D+00  0.0000000000000D+00
   305  3.0400000000000D+00  0.0000000000000D+00  0.0000000000000D+00
   306  3.0500000000000D+00  0.0000000000000D+00  0.0000000000000D+00
   307  3.0600000000000D+00  0.0000000000000D+00  0.0000000000000D+00
   308  3.0700000000000D+00  0.0000000000000D+00  0.0000000000000D+00
   309  3.0800000000000D+00  0.0000000000000D+00  0.0000000000000D+00
   310  3.0900000000000D+00  0.0000000000000D+00  0.0000000000000D+00
   311  3.1000000000000D+00  0.0000000000000D+00  0.0000000000000D+00
   312  3.1100000000000D+00  0.0000000000000D+00  0.0000000000000D+00
   313  3.1200000000000D+00  0.0000000000000D+00  0.0000000000000D+00
   314  3.1300000000000D+00  0.0000000000000D+00  0.0000000000000D+00
   315  3.1400000000000D+00  0.0000000000000D+00  0.0000000000000D+00
   316  3.1500000000000D+00  0.0000000000000D+00  0.0000000000000D+00
   317  3.1600000000000D+00  0.0000000000000D+00  0.0000000000000D+00
   318  3.1700000000000D+00  0.0000000000000D+00  0.0000000000000D+00
   319  3.1800000000000D+00  0.0000000000000D+00  0.0000000000000D+00
   320  3.1900000000000D+00  0.0000000000000D+00  0.0000000000000D+00
   321  3.2000000000000D+00  0.0000000000000D+00  0.0000000000000D+00
   322  3.2100000000000D+00  0.0000000000000D+00  0.0000000000000D+00
   323  3.2200000000000D+00  0.0000000000000D+00  0.0000000000000D+00
   324  3.2300000000000D+00  0.0000000000000D+00  0.0000000000000D+00
   325  3.2400000000000D+00  0.0000000000000D+00  0.0000000000000D+00
   326  3.2500000000000D+00  0.0000000000000D+00  0.0000000000000D+00
   327  3.2600000000000D+00  0.0000000000000D+00  0.0000000000000D+00
   328  3.2700000000000D+00  0.0000000000000D+00  0.0000000000000D+00
   329  3.2800000000000D+00  0.0000000000000D+00  0.0000000000000D+00
   330  3.2900000000000D+00  0.0000000000000D+00  0.0000000000000D+00
   331  3.3000000000000D+00  0.0000000000000D+00  0.0000000000000D+00
   332  3.3100000000000D+00  0.0000000000000D+00  0.0000000000000D+00
   333  3.3200000000000D+00  0.0000000000000D+00  0.0000000000000D+00
   334  3.3300000000000D+00  0.0000000000000D+00  0.0000000000000D+00
   335  3.3400000000000D+00  0.0000000000000D+00  0.0000000000000D+00
   336  3.3500000000000D+00  0.0000000000000D+00  0.0000000000000D+00
   337  3.3600000000000D+00  0.0000000000000D+00  0.0000000000000D+00
   338  3.3700000000000D+00  0.0000000000000D+00  0.0000000000000D+00
   339  3.3800000000000D+00  0.0000000000000D+00  0.0000000000000D+00
   340  3.3900000000000D+00  0.0000000000000D+00  0.0000000000000D+00
   341  3.4000000000000D+00  0.0000000000000D+00  0.0000000000000D+00
   342  3.4100000000000D+00  0.0000000000000D+00  0.0000000000000D+00
   343  3.4200000000000D+00  0.0000000000000D+00  0.0000000000000D+00
   344  3.4300000000000D+00  0.0000000000000D+00  0.0000000000000D+00
   345  3.4400000000000D+00  0.0000000000000D+00  0.0000000000000D+00
   346  3.4500000000000D+00  0.0000000000000D+00  0.0000000000000D+00
   347  3.4600000000000D+00  0.0000000000000D+00  0.0000000000000D+00
   348  3.4700000000000D+00  0.0000000000000D+00  0.0000000000000D+00
   349  3.4800000000000D+00  0.0000000000000D+00  0.0000000000000D+00
   350  3.4900000000000D+00  0.0000000000000D+00  0.0000000000000D+00
   351  3.5000000000000D+00  0.0000000000000D+00  0.0000000000000D+00
   352  3.5100000000000D+00  0.0000000000000D+00  0.0000000000000D+00
   353  3.5200000000000D+00  0.0000000000000D+00  0.0000000000000D+00
   354  3.5300000000000D+00  0.0000000000000D+00  0.0000000000000D+00
   355  3.5400000000000D+00  0.0000000000000D+00  0.0000000000000D+00
   356  3.5500000000000D+00  0.0000000000000D+00  0.0000000000000D+00
   357  3.5600000000000D+00  0.0000000000000D+00  0.0000000000000D+00
   358  3.5700000000000D+00  0.0000000000000D+00  0.0000000000000D+00
   359  3.5800000000000D+00  0.0000000000000D+00  0.0000000000000D+00
   360  3.5900000000000D+00  0.0000000000000D+00  0.0000000000000D+00
   361  3.6000000000000D+00  0.0000000000000D+00  0.0000000000000D+00
   362  3.6100000000000D+00  0.0000000000000D+00  0.0000000000000D+00
   363  3.6200000000000D+00  0.0000000000000D+00  0.0000000000000D+00
   364  3.6300000000000D+00  0.0000000000000D+00  0.0000000000000D+00
   365  3.6400000000000D+00  0.0000000000000D+00  0.0000000000000D+00
   366  3.6500000000000D+00  0.0000000000000D+00  0.0000000000000D+00
   367  3.6600000000000D+00  0.0000000000000D+00  0.0000000000000D+00
   368  3.6700000000000D+00  0.0000000000000D+00  0.0000000000000D+00
   369  3.6800000000000D+00  0.0000000000000D+00  0.0000000000000D+00
   370  3.6900000000000D+00  0.0000000000000D+00  0.0000000000000D+00
   371  3.7000000000000D+00  0.0000000000000D+00  0.0000000000000D+00
   372  3.7100000000000D+00  0.0000000000000D+00  0.0000000000000D+00
   373  3.7200000000000D+00  0.0000000000000D+00  0.0000000000000D+00
   374  3.7300000000000D+00  0.0000000000000D+00  0.0000000000000D+00
   375  3.7400000000000D+00  0.0000000000000D+00  0.0000000000000D+00
   376  3.7500000000000D+00  0.0000000000000D+00  0.0000000000000D+00
   377  3.7600000000000D+00  0.0000000000000D+00  0.0000000000000D+00
   378  3.7700000000000D+00  0.0000000000000D+00  0.0000000000000D+00
   379  3.7800000000000D+00  0.0000000000000D+00  0.0000000000000D+00
   380  3.7900000000000D+00  0.0000000000000D+00  0.0000000000000D+00
   381  3.8000000000000D+00  0.0000000000000D+00  0.0000000000000D+00
   382  3.8100000000000D+00  0.0000000000000D+00  0.0000000000000D+00
   383  3.8200000000000D+00  0.0000000000000D+00  0.0000000000000D+00
   384  3.8300000000000D+00  0.0000000000000D+00  0.0000000000000D+00
   385  3.8400000000000D+00  0.0000000000000D+00  0.0000000000000D+00
   386  3.8500000000000D+00  0.0000000000000D+00  0.0000000000000D+00
   387  3.8600000000000D+00  0.0000000000000D+00  0.0000000000000D+00
   388  3.8700000000000D+00  0.0000000000000D+00  0.0000000000000D+00
   389  3.8800000000000D+00  0.0000000000000D+00  0.0000000000000D+00
   390  3.8900000000000D+00  0.0000000000000D+00  0.0000000000000D+00
   391  3.9000000000000D+00  0.0000000000000D+00  0.0000000000000D+00
   392  3.9100000000000D+00  0.0000000000000D+00  0.0000000000000D+00
   393  3.9200000000000D+00  0.0000000000000D+00  0.0000000000000D+00
   394  3.9300000000000D+00  0.0000000000000D+00  0.0000000000000D+00
   395  3.9400000000000D+00  0.0000000000000D+00  0.0000000000000D+00
   396  3.9500000000000D+00  0.0000000000000D+00  0.0000000000000D+00
   397  3.9600000000000D+00  0.0000000000000D+00  0.0000000000000D+00
   398  3.9700000000000D+00  0.0000000000000D+00  0.0000000000000D+00
   399  3.9800000000000D+00  0.0000000000000D+00  0.0000000000000D+00
   400  3.9900000000000D+00  0.0000000000000D+00  0.0000000000000D+00
   401  4.0000000000000D+00  0.0000000000000D+00  0.0000000000000D+00
   402  4.0100000000000D+00  0.0000000000000D+00  0.0000000000000D+00
   403  4.0200000000000D+00  0.0000000000000D+00  0.0000000000000D+00
   404  4.0300000000000D+00  0.0000000000000D+00  0.0000000000000D+00
   405  4.0400000000000D+00  0.0000000000000D+00  0.0000000000000D+00
   406  4.0500000000000D+00  0.0000000000000D+00  0.0000000000000D+00
   407  4.0600000000000D+00  0.0000000000000D+00  0.0000000000000D+00
   408  4.0700000000000D+00  0.0000000000000D+00  0.0000000000000D+00
   409  4.0800000000000D+00  0.0000000000000D+00  0.0000000000000D+00
   410  4.0900000000000D+00  0.0000000000000D+00  0.0000000000000D+00
   411  4.1000000000000D+00  0.0000000000000D+00  0.0000000000000D+00
   412  4.1100000000000D+00  0.0000000000000D+00  0.0000000000000D+00
   413  4.1200000000000D+00  0.0000000000000D+00  0.0000000000000D+00
   414  4.1300000000000D+00  0.0000000000000D+00  0.0000000000000D+00
   415  4.1400000000000D+00  0.0000000000000D+00  0.0000000000000D+00
   416  4.1500000000000D+00  0.0000000000000D+00  0.0000000000000D+00
   417  4.1600000000000D+00  0.0000000000000D+00  0.0000000000000D+00
   418  4.1700000000000D+00  0.0000000000000D+00  0.0000000000000D+00
   419  4.1800000000000D+00  0.0000000000000D+00  0.0000000000000D+00
   420  4.1900000000000D+00  0.0000000000000D+00  0.0000000000000D+00
   421  4.2000000000000D+00  0.0000000000000D+00  0.0000000000000D+00
   422  4.2100000000000D+00  0.0000000000000D+00  0.0000000000000D+00