Ge    ONCVPSP-3.3.0  r_core=   1.21401   1.30409   1.50478
     32.0000     22.0000      220408    zatom,zion,pspd
     8       2   2     4   600     0    pspcod,pspxc,lmax,lloc,mmax,r2well
  5.99000000  0.00000000  0.00000000    rchrg fchrg qchrg
     2     2     2     0     0    nproj
     1     1           extension_switch
   0                         4.4380982996602D+00 -1.7305492344307D+00
     1  0.0000000000000D+00  1.6549637216201D-09  2.5932223035596D-10
     2  1.0000000000000D-02  1.0290889342451D-01  3.2588671395774D-02
     3  2.0000000000000D-02  2.0545176096575D-01  6.5203686114677D-02
     4  3.0000000000000D-02  3.0726284309820D-01  9.7870847392265D-02
     5  4.0000000000000D-02  4.0797693424121D-01  1.3061488419572D-01
     6  5.0000000000000D-02  5.0722971237490D-01  1.6345892878980D-01
     7  6.0000000000000D-02  6.0465813063104D-01  1.9642401175673D-01
     8  7.0000000000000D-02  6.9990088954140D-01  2.2952857998015D-01
     9  8.0000000000000D-02  7.9259900697075D-01  2.6278804284354D-01
    10  9.0000000000000D-02  8.8239650074111D-01  2.9621435157554D-01
    11  1.0000000000000D-01  9.6894119659662D-01  3.2981561630044D-01
    12  1.1000000000000D-01  1.0518856715035D+00  3.6359576492729D-01
    13  1.2000000000000D-01  1.1308883393648D+00  3.9755424754050D-01
    14  1.3000000000000D-01  1.2056146831031D+00  4.3168578944309D-01
    15  1.4000000000000D-01  1.2757386337707D+00  4.6598019545821D-01
    16  1.5000000000000D-01  1.3409440939446D+00  5.0042220752037D-01
    17  1.6000000000000D-01  1.4009265991941D+00  5.3499141699252D-01
    18  1.7000000000000D-01  1.4553951079481D+00  5.6966223253547D-01
    19  1.8000000000000D-01  1.5040739066642D+00  6.0440390373905D-01
    20  1.9000000000000D-01  1.5467046139021D+00  6.3918060010740D-01
    21  2.0000000000000D-01  1.5830482637536D+00  6.7395154438133D-01
    22  2.1000000000000D-01  1.6128874461580D+00  7.0867119858506D-01
    23  2.2000000000000D-01  1.6360284789692D+00  7.4328950061081D-01
    24  2.3000000000000D-01  1.6523035843012D+00  7.7775214860920D-01
    25  2.4000000000000D-01  1.6615730396942D+00  8.1200092994164D-01
    26  2.5000000000000D-01  1.6637272730614D+00  8.4597409098050D-01
    27  2.6000000000000D-01  1.6586888692288D+00  8.7960674361786D-01
    28  2.7000000000000D-01  1.6464144551953D+00  9.1283130396969D-01
    29  2.8000000000000D-01  1.6268964310410D+00  9.4557795844358D-01
    30  2.9000000000000D-01  1.6001645137155D+00  9.7777515207833D-01
    31  3.0000000000000D-01  1.5662870617472D+00  1.0093500938655D+00
    32  3.1000000000000D-01  1.5253721502434D+00  1.0402292736285D+00
    33  3.2000000000000D-01  1.4775683673802D+00  1.0703389849672D+00
    34  3.3000000000000D-01  1.4230653059047D+00  1.0996058487694D+00
    35  3.4000000000000D-01  1.3620937259721D+00  1.1279573318589D+00
    36  3.5000000000000D-01  1.2949253688795D+00  1.1553222554692D+00
    37  3.6000000000000D-01  1.2218724049143D+00  1.1816312884289D+00
    38  3.7000000000000D-01  1.1432865025542D+00  1.2068174201884D+00
    39  3.8000000000000D-01  1.0595575106031D+00  1.2308164091268D+00
    40  3.9000000000000D-01  9.7111174945686D-01  1.2535672019349D+00
    41  4.0000000000000D-01  8.7840991252000D-01  1.2750123202774D+00
    42  4.1000000000000D-01  7.8194458376550D-01  1.2950982113817D+00
    43  4.2000000000000D-01  6.8223738248506D-01  1.3137755596916D+00
    44  4.3000000000000D-01  5.7983575134905D-01  1.3309995572304D+00
    45  4.4000000000000D-01  4.7530940890888D-01  1.3467301308616D+00
    46  4.5000000000000D-01  3.6924649256412D-01  1.3609321251847D+00
    47  4.6000000000000D-01  2.6224942270786D-01  1.3735754403661D+00
    48  4.7000000000000D-01  1.5493052318903D-01  1.3846351247693D+00
    49  4.8000000000000D-01  4.7907437322228D-02  1.3940914228038D+00
    50  4.9000000000000D-01 -5.8201617631295D-02  1.4019297789568D+00
    51  5.0000000000000D-01 -1.6278271135200D-01  1.4081407994948D+00
    52  5.1000000000000D-01 -2.6523112783785D-01  1.4127201738167D+00
    53  5.2000000000000D-01 -3.6495630822559D-01  1.4156685579038D+00
    54  5.3000000000000D-01 -4.6138675645862D-01  1.4169914227321D+00
    55  5.4000000000000D-01 -5.5397485428764D-01  1.4166988708917D+00
    56  5.5000000000000D-01 -6.4220153183837D-01  1.4148054249813D+00
    57  5.6000000000000D-01 -7.2558074041750D-01  1.4113297916232D+00
    58  5.7000000000000D-01 -8.0366367535302D-01  1.4062946051547D+00
    59  5.8000000000000D-01 -8.7604269849196D-01  1.3997261552110D+00
    60  5.9000000000000D-01 -9.4235491247774D-01  1.3916541025040D+00
    61  6.0000000000000D-01 -1.0022853421106D+00  1.3821111871360D+00
    62  6.1000000000000D-01 -1.0555696818858D+00  1.3711329337517D+00
    63  6.2000000000000D-01 -1.1019965732315D+00  1.3587573577402D+00
    64  6.3000000000000D-01 -1.1414093798980D+00  1.3450246765448D+00
    65  6.4000000000000D-01 -1.1737074354217D+00  1.3299770299258D+00
    66  6.5000000000000D-01 -1.1988467424717D+00  1.3136582127574D+00
    67  6.6000000000000D-01 -1.2168401101066D+00  1.2961134236266D+00
    68  6.7000000000000D-01 -1.2277567215361D+00  1.2773890321394D+00
    69  6.8000000000000D-01 -1.2317211316985D+00  1.2575323674424D+00
    70  6.9000000000000D-01 -1.2289117008117D+00  1.2365915300383D+00
    71  7.0000000000000D-01 -1.2195584769473D+00  1.2146152285130D+00
    72  7.1000000000000D-01 -1.2039405474966D+00  1.1916526423147D+00
    73  7.2000000000000D-01 -1.1823828860504D+00  1.1677533112391D+00
    74  7.3000000000000D-01 -1.1552527276452D+00  1.1429670517763D+00
    75  7.4000000000000D-01 -1.1229555113883D+00  1.1173438999882D+00
    76  7.5000000000000D-01 -1.0859304351675D+00  1.0909340801009D+00
    77  7.6000000000000D-01 -1.0446456722838D+00  1.0637879975371D+00
    78  7.7000000000000D-01 -9.9959330443596D-01  1.0359562546718D+00
    79  7.8000000000000D-01 -9.5128402941747D-01  1.0074896871912D+00
    80  7.9000000000000D-01 -9.0024170510496D-01  9.7843941856557D-01
    81  8.0000000000000D-01 -8.4699779378299D-01  9.4885692981934D-01
    82  8.1000000000000D-01 -7.9208577250245D-01  9.1879414150798D-01
    83  8.2000000000000D-01 -7.3603557599194D-01  8.8830350458574D-01
    84  8.3000000000000D-01 -6.7936813860391D-01  8.5743809668067D-01
    85  8.4000000000000D-01 -6.2259010087103D-01  8.2625172018486D-01
    86  8.5000000000000D-01 -5.6618874447903D-01  7.9479899851957D-01
    87  8.6000000000000D-01 -5.1062721684148D-01  7.6313546694807D-01
    88  8.7000000000000D-01 -4.5634010301679D-01  7.3131765438333D-01
    89  8.8000000000000D-01 -4.0372939847542D-01  6.9940315277222D-01
    90  8.9000000000000D-01 -3.5316093125810D-01  6.6745067083066D-01
    91  9.0000000000000D-01 -3.0496127640908D-01  6.3552006915188D-01
    92  9.1000000000000D-01 -2.5941519932506D-01  6.0367237400920D-01
    93  9.2000000000000D-01 -2.1676365788108D-01  5.7196976751950D-01
    94  9.3000000000000D-01 -1.7720238594603D-01  5.4047555222269D-01
    95  9.4000000000000D-01 -1.4088107335254D-01  5.0925408855323D-01
    96  9.5000000000000D-01 -1.0790314955624D-01  4.7837070413180D-01
    97  9.6000000000000D-01 -7.8326170259637D-02  4.4789157427765D-01
    98  9.7000000000000D-01 -5.2162798278404D-02  4.1788357362940D-01
    99  9.8000000000000D-01 -2.9382362004190D-02  3.8841409925544D-01
   100  9.9000000000000D-01 -9.9129670913080D-03  3.5955086612583D-01
   101  1.0000000000000D+00  6.3558705494608D-03  3.3136167630713D-01
   102  1.0100000000000D+00  1.9570109224011D-02  3.0391416369328D-01
   103  1.0200000000000D+00  2.9907628946493D-02  2.7727551654111D-01
   104  1.0300000000000D+00  3.7574293411408D-02  2.5151218048397D-01
   105  1.0400000000000D+00  4.2799683192073D-02  2.2668954506592D-01
   106  1.0500000000000D+00  4.5832561508744D-02  2.0287161716774D-01
   107  1.0600000000000D+00  4.6936137707802D-02  1.8012068497649D-01
   108  1.0700000000000D+00  4.6383196304763D-02  1.5849697635775D-01
   109  1.0800000000000D+00  4.4451161704967D-02  1.3805831567540D-01
   110  1.0900000000000D+00  4.1417169534924D-02  1.1885978318897D-01
   111  1.1000000000000D+00  3.7553215681390D-02  1.0095338120334D-01
   112  1.1100000000000D+00  3.3121453016363D-02  8.4387711104128D-02
   113  1.1200000000000D+00  2.8369704504650D-02  6.9207665353972D-02
   114  1.1300000000000D+00  2.3527257964254D-02  5.5454138332327D-02
   115  1.1400000000000D+00  1.8801004554506D-02  4.3163759710004D-02
   116  1.1500000000000D+00  1.4371977656141D-02  3.2368653716758D-02
   117  1.1600000000000D+00  1.0392345468598D-02  2.3096227453830D-02
   118  1.1700000000000D+00  6.9829022627701D-03  1.5368990869311D-02
   119  1.1800000000000D+00  4.2327791431545D-03  9.2079566672068D-03
   120  1.1900000000000D+00  2.1797130516460D-03  4.5967321944276D-03
   121  1.2000000000000D+00  8.7866528411673D-04  1.6118379220666D-03
   122  1.2100000000000D+00  3.1836548238324D-04  2.6328808239242D-04
   123  1.2200000000000D+00  9.7294824796381D-05 -4.6945810814108D-05
   124  1.2300000000000D+00 -5.6550493265410D-06  6.9856815849074D-06
   125  1.2400000000000D+00 -6.2774734001657D-06  1.1529149746634D-05
   126  1.2500000000000D+00  3.1978110062214D-06 -3.2587634824215D-06
   127  1.2600000000000D+00 -2.5107375863785D-07 -6.6190377043252D-08
   128  1.2700000000000D+00 -3.7237420481236D-07 -9.8168718035018D-08
   129  1.2800000000000D+00  0.0000000000000D+00  0.0000000000000D+00
   130  1.2900000000000D+00  0.0000000000000D+00  0.0000000000000D+00
   131  1.3000000000000D+00  0.0000000000000D+00  0.0000000000000D+00
   132  1.3100000000000D+00  0.0000000000000D+00  0.0000000000000D+00
   133  1.3200000000000D+00  0.0000000000000D+00  0.0000000000000D+00
   134  1.3300000000000D+00  0.0000000000000D+00  0.0000000000000D+00
   135  1.3400000000000D+00  0.0000000000000D+00  0.0000000000000D+00
   136  1.3500000000000D+00  0.0000000000000D+00  0.0000000000000D+00
   137  1.3600000000000D+00  0.0000000000000D+00  0.0000000000000D+00
   138  1.3700000000000D+00  0.0000000000000D+00  0.0000000000000D+00
   139  1.3800000000000D+00  0.0000000000000D+00  0.0000000000000D+00
   140  1.3900000000000D+00  0.0000000000000D+00  0.0000000000000D+00
   141  1.4000000000000D+00  0.0000000000000D+00  0.0000000000000D+00
   142  1.4100000000000D+00  0.0000000000000D+00  0.0000000000000D+00
   143  1.4200000000000D+00  0.0000000000000D+00  0.0000000000000D+00
   144  1.4300000000000D+00  0.0000000000000D+00  0.0000000000000D+00
   145  1.4400000000000D+00  0.0000000000000D+00  0.0000000000000D+00
   146  1.4500000000000D+00  0.0000000000000D+00  0.0000000000000D+00
   147  1.4600000000000D+00  0.0000000000000D+00  0.0000000000000D+00
   148  1.4700000000000D+00  0.0000000000000D+00  0.0000000000000D+00
   149  1.4800000000000D+00  0.0000000000000D+00  0.0000000000000D+00
   150  1.4900000000000D+00  0.0000000000000D+00  0.0000000000000D+00
   151  1.5000000000000D+00  0.0000000000000D+00  0.0000000000000D+00
   152  1.5100000000000D+00  0.0000000000000D+00  0.0000000000000D+00
   153  1.5200000000000D+00  0.0000000000000D+00  0.0000000000000D+00
   154  1.5300000000000D+00  0.0000000000000D+00  0.0000000000000D+00
   155  1.5400000000000D+00  0.0000000000000D+00  0.0000000000000D+00
   156  1.5500000000000D+00  0.0000000000000D+00  0.0000000000000D+00
   157  1.5600000000000D+00  0.0000000000000D+00  0.0000000000000D+00
   158  1.5700000000000D+00  0.0000000000000D+00  0.0000000000000D+00
   159  1.5800000000000D+00  0.0000000000000D+00  0.0000000000000D+00
   160  1.5900000000000D+00  0.0000000000000D+00  0.0000000000000D+00
   161  1.6000000000000D+00  0.0000000000000D+00  0.0000000000000D+00
   162  1.6100000000000D+00  0.0000000000000D+00  0.0000000000000D+00
   163  1.6200000000000D+00  0.0000000000000D+00  0.0000000000000D+00
   164  1.6300000000000D+00  0.0000000000000D+00  0.0000000000000D+00
   165  1.6400000000000D+00  0.0000000000000D+00  0.0000000000000D+00
   166  1.6500000000000D+00  0.0000000000000D+00  0.0000000000000D+00
   167  1.6600000000000D+00  0.0000000000000D+00  0.0000000000000D+00
   168  1.6700000000000D+00  0.0000000000000D+00  0.0000000000000D+00
   169  1.6800000000000D+00  0.0000000000000D+00  0.0000000000000D+00
   170  1.6900000000000D+00  0.0000000000000D+00  0.0000000000000D+00
   171  1.7000000000000D+00  0.0000000000000D+00  0.0000000000000D+00
   172  1.7100000000000D+00  0.0000000000000D+00  0.0000000000000D+00
   173  1.7200000000000D+00  0.0000000000000D+00  0.0000000000000D+00
   174  1.7300000000000D+00  0.0000000000000D+00  0.0000000000000D+00
   175  1.7400000000000D+00  0.0000000000000D+00  0.0000000000000D+00
   176  1.7500000000000D+00  0.0000000000000D+00  0.0000000000000D+00
   177  1.7600000000000D+00  0.0000000000000D+00  0.0000000000000D+00
   178  1.7700000000000D+00  0.0000000000000D+00  0.0000000000000D+00
   179  1.7800000000000D+00  0.0000000000000D+00  0.0000000000000D+00
   180  1.7900000000000D+00  0.0000000000000D+00  0.0000000000000D+00
   181  1.8000000000000D+00  0.0000000000000D+00  0.0000000000000D+00
   182  1.8100000000000D+00  0.0000000000000D+00  0.0000000000000D+00
   183  1.8200000000000D+00  0.0000000000000D+00  0.0000000000000D+00
   184  1.8300000000000D+00  0.0000000000000D+00  0.0000000000000D+00
   185  1.8400000000000D+00  0.0000000000000D+00  0.0000000000000D+00
   186  1.8500000000000D+00  0.0000000000000D+00  0.0000000000000D+00
   187  1.8600000000000D+00  0.0000000000000D+00  0.0000000000000D+00
   188  1.8700000000000D+00  0.0000000000000D+00  0.0000000000000D+00
   189  1.8800000000000D+00  0.0000000000000D+00  0.0000000000000D+00
   190  1.8900000000000D+00  0.0000000000000D+00  0.0000000000000D+00
   191  1.9000000000000D+00  0.0000000000000D+00  0.0000000000000D+00
   192  1.9100000000000D+00  0.0000000000000D+00  0.0000000000000D+00
   193  1.9200000000000D+00  0.0000000000000D+00  0.0000000000000D+00
   194  1.9300000000000D+00  0.0000000000000D+00  0.0000000000000D+00
   195  1.9400000000000D+00  0.0000000000000D+00  0.0000000000000D+00
   196  1.9500000000000D+00  0.0000000000000D+00  0.0000000000000D+00
   197  1.9600000000000D+00  0.0000000000000D+00  0.0000000000000D+00
   198  1.9700000000000D+00  0.0000000000000D+00  0.0000000000000D+00
   199  1.9800000000000D+00  0.0000000000000D+00  0.0000000000000D+00
   200  1.9900000000000D+00  0.0000000000000D+00  0.0000000000000D+00
   201  2.0000000000000D+00  0.0000000000000D+00  0.0000000000000D+00
   202  2.0100000000000D+00  0.0000000000000D+00  0.0000000000000D+00
   203  2.0200000000000D+00  0.0000000000000D+00  0.0000000000000D+00
   204  2.0300000000000D+00  0.0000000000000D+00  0.0000000000000D+00
   205  2.0400000000000D+00  0.0000000000000D+00  0.0000000000000D+00
   206  2.0500000000000D+00  0.0000000000000D+00  0.0000000000000D+00
   207  2.0600000000000D+00  0.0000000000000D+00  0.0000000000000D+00
   208  2.0700000000000D+00  0.0000000000000D+00  0.0000000000000D+00
   209  2.0800000000000D+00  0.0000000000000D+00  0.0000000000000D+00
   210  2.0900000000000D+00  0.0000000000000D+00  0.0000000000000D+00
   211  2.1000000000000D+00  0.0000000000000D+00  0.0000000000000D+00
   212  2.1100000000000D+00  0.0000000000000D+00  0.0000000000000D+00
   213  2.1200000000000D+00  0.0000000000000D+00  0.0000000000000D+00
   214  2.1300000000000D+00  0.0000000000000D+00  0.0000000000000D+00
   215  2.1400000000000D+00  0.0000000000000D+00  0.0000000000000D+00
   216  2.1500000000000D+00  0.0000000000000D+00  0.0000000000000D+00
   217  2.1600000000000D+00  0.0000000000000D+00  0.0000000000000D+00
   218  2.1700000000000D+00  0.0000000000000D+00  0.0000000000000D+00
   219  2.1800000000000D+00  0.0000000000000D+00  0.0000000000000D+00
   220  2.1900000000000D+00  0.0000000000000D+00  0.0000000000000D+00
   221  2.2000000000000D+00  0.0000000000000D+00  0.0000000000000D+00
   222  2.2100000000000D+00  0.0000000000000D+00  0.0000000000000D+00
   223  2.2200000000000D+00  0.0000000000000D+00  0.0000000000000D+00
   224  2.2300000000000D+00  0.0000000000000D+00  0.0000000000000D+00
   225  2.2400000000000D+00  0.0000000000000D+00  0.0000000000000D+00
   226  2.2500000000000D+00  0.0000000000000D+00  0.0000000000000D+00
   227  2.2600000000000D+00  0.0000000000000D+00  0.0000000000000D+00
   228  2.2700000000000D+00  0.0000000000000D+00  0.0000000000000D+00
   229  2.2800000000000D+00  0.0000000000000D+00  0.0000000000000D+00
   230  2.2900000000000D+00  0.0000000000000D+00  0.0000000000000D+00
   231  2.3000000000000D+00  0.0000000000000D+00  0.0000000000000D+00
   232  2.3100000000000D+00  0.0000000000000D+00  0.0000000000000D+00
   233  2.3200000000000D+00  0.0000000000000D+00  0.0000000000000D+00
   234  2.3300000000000D+00  0.0000000000000D+00  0.0000000000000D+00
   235  2.3400000000000D+00  0.0000000000000D+00  0.0000000000000D+00
   236  2.3500000000000D+00  0.0000000000000D+00  0.0000000000000D+00
   237  2.3600000000000D+00  0.0000000000000D+00  0.0000000000000D+00
   238  2.3700000000000D+00  0.0000000000000D+00  0.0000000000000D+00
   239  2.3800000000000D+00  0.0000000000000D+00  0.0000000000000D+00
   240  2.3900000000000D+00  0.0000000000000D+00  0.0000000000000D+00
   241  2.4000000000000D+00  0.0000000000000D+00  0.0000000000000D+00
   242  2.4100000000000D+00  0.0000000000000D+00  0.0000000000000D+00
   243  2.4200000000000D+00  0.0000000000000D+00  0.0000000000000D+00
   244  2.4300000000000D+00  0.0000000000000D+00  0.0000000000000D+00
   245  2.4400000000000D+00  0.0000000000000D+00  0.0000000000000D+00
   246  2.4500000000000D+00  0.0000000000000D+00  0.0000000000000D+00
   247  2.4600000000000D+00  0.0000000000000D+00  0.0000000000000D+00
   248  2.4700000000000D+00  0.0000000000000D+00  0.0000000000000D+00
   249  2.4800000000000D+00  0.0000000000000D+00  0.0000000000000D+00
   250  2.4900000000000D+00  0.0000000000000D+00  0.0000000000000D+00
   251  2.5000000000000D+00  0.0000000000000D+00  0.0000000000000D+00
   252  2.5100000000000D+00  0.0000000000000D+00  0.0000000000000D+00
   253  2.5200000000000D+00  0.0000000000000D+00  0.0000000000000D+00
   254  2.5300000000000D+00  0.0000000000000D+00  0.0000000000000D+00
   255  2.5400000000000D+00  0.0000000000000D+00  0.0000000000000D+00
   256  2.5500000000000D+00  0.0000000000000D+00  0.0000000000000D+00
   257  2.5600000000000D+00  0.0000000000000D+00  0.0000000000000D+00
   258  2.5700000000000D+00  0.0000000000000D+00  0.0000000000000D+00
   259  2.5800000000000D+00  0.0000000000000D+00  0.0000000000000D+00
   260  2.5900000000000D+00  0.0000000000000D+00  0.0000000000000D+00
   261  2.6000000000000D+00  0.0000000000000D+00  0.0000000000000D+00
   262  2.6100000000000D+00  0.0000000000000D+00  0.0000000000000D+00
   263  2.6200000000000D+00  0.0000000000000D+00  0.0000000000000D+00
   264  2.6300000000000D+00  0.0000000000000D+00  0.0000000000000D+00
   265  2.6400000000000D+00  0.0000000000000D+00  0.0000000000000D+00
   266  2.6500000000000D+00  0.0000000000000D+00  0.0000000000000D+00
   267  2.6600000000000D+00  0.0000000000000D+00  0.0000000000000D+00
   268  2.6700000000000D+00  0.0000000000000D+00  0.0000000000000D+00
   269  2.6800000000000D+00  0.0000000000000D+00  0.0000000000000D+00
   270  2.6900000000000D+00  0.0000000000000D+00  0.0000000000000D+00
   271  2.7000000000000D+00  0.0000000000000D+00  0.0000000000000D+00
   272  2.7100000000000D+00  0.0000000000000D+00  0.0000000000000D+00
   273  2.7200000000000D+00  0.0000000000000D+00  0.0000000000000D+00
   274  2.7300000000000D+00  0.0000000000000D+00  0.0000000000000D+00
   275  2.7400000000000D+00  0.0000000000000D+00  0.0000000000000D+00
   276  2.7500000000000D+00  0.0000000000000D+00  0.0000000000000D+00
   277  2.7600000000000D+00  0.0000000000000D+00  0.0000000000000D+00
   278  2.7700000000000D+00  0.0000000000000D+00  0.0000000000000D+00
   279  2.7800000000000D+00  0.0000000000000D+00  0.0000000000000D+00
   280  2.7900000000000D+00  0.0000000000000D+00  0.0000000000000D+00
   281  2.8000000000000D+00  0.0000000000000D+00  0.0000000000000D+00
   282  2.8100000000000D+00  0.0000000000000D+00  0.0000000000000D+00
   283  2.8200000000000D+00  0.0000000000000D+00  0.0000000000000D+00
   284  2.8300000000000D+00  0.0000000000000D+00  0.0000000000000D+00
   285  2.8400000000000D+00  0.0000000000000D+00  0.0000000000000D+00
   286  2.8500000000000D+00  0.0000000000000D+00  0.0000000000000D+00
   287  2.8600000000000D+00  0.0000000000000D+00  0.0000000000000D+00
   288  2.8700000000000D+00  0.0000000000000D+00  0.0000000000000D+00
   289  2.8800000000000D+00  0.0000000000000D+00  0.0000000000000D+00
   290  2.8900000000000D+00  0.0000000000000D+00  0.0000000000000D+00
   291  2.9000000000000D+00  0.0000000000000D+00  0.0000000000000D+00
   292  2.9100000000000D+00  0.0000000000000D+00  0.0000000000000D+00
   293  2.9200000000000D+00  0.0000000000000D+00  0.0000000000000D+00
   294  2.9300000000000D+00  0.0000000000000D+00  0.0000000000000D+00
   295  2.9400000000000D+00  0.0000000000000D+00  0.0000000000000D+00
   296  2.9500000000000D+00  0.0000000000000D+00  0.0000000000000D+00
   297  2.9600000000000D+00  0.0000000000000D+00  0.0000000000000D+00
   298  2.9700000000000D+00  0.0000000000000D+00  0.0000000000000D+00
   299  2.9800000000000D+00  0.0000000000000D+00  0.0000000000000D+00
   300  2.9900000000000D+00  0.0000000000000D+00  0.0000000000000D+00
   301  3.0000000000000D+00  0.0000000000000D+00  0.0000000000000D+00
   302  3.0100000000000D+00  0.0000000000000D+00  0.0000000000000D+00
   303  3.0200000000000D+00  0.0000000000000D+00  0.0000000000000D+00
   304  3.0300000000000D+00  0.0000000000000D+00  0.0000000000000D+00
   305  3.0400000000000D+00  0.0000000000000D+00  0.0000000000000D+00
   306  3.0500000000000D+00  0.0000000000000D+00  0.0000000000000D+00
   307  3.0600000000000D+00  0.0000000000000D+00  0.0000000000000D+00
   308  3.0700000000000D+00  0.0000000000000D+00  0.0000000000000D+00
   309  3.0800000000000D+00  0.0000000000000D+00  0.0000000000000D+00
   310  3.0900000000000D+00  0.0000000000000D+00  0.0000000000000D+00
   311  3.1000000000000D+00  0.0000000000000D+00  0.0000000000000D+00
   312  3.1100000000000D+00  0.0000000000000D+00  0.0000000000000D+00
   313  3.1200000000000D+00  0.0000000000000D+00  0.0000000000000D+00
   314  3.1300000000000D+00  0.0000000000000D+00  0.0000000000000D+00
   315  3.1400000000000D+00  0.0000000000000D+00  0.0000000000000D+00
   316  3.1500000000000D+00  0.0000000000000D+00  0.0000000000000D+00
   317  3.1600000000000D+00  0.0000000000000D+00  0.0000000000000D+00
   318  3.1700000000000D+00  0.0000000000000D+00  0.0000000000000D+00
   319  3.1800000000000D+00  0.0000000000000D+00  0.0000000000000D+00
   320  3.1900000000000D+00  0.0000000000000D+00  0.0000000000000D+00
   321  3.2000000000000D+00  0.0000000000000D+00  0.0000000000000D+00
   322  3.2100000000000D+00  0.0000000000000D+00  0.0000000000000D+00
   323  3.2200000000000D+00  0.0000000000000D+00  0.0000000000000D+00
   324  3.2300000000000D+00  0.0000000000000D+00  0.0000000000000D+00
   325  3.2400000000000D+00  0.0000000000000D+00  0.0000000000000D+00
   326  3.2500000000000D+00  0.0000000000000D+00  0.0000000000000D+00
   327  3.2600000000000D+00  0.0000000000000D+00  0.0000000000000D+00
   328  3.2700000000000D+00  0.0000000000000D+00  0.0000000000000D+00
   329  3.2800000000000D+00  0.0000000000000D+00  0.0000000000000D+00
   330  3.2900000000000D+00  0.0000000000000D+00  0.0000000000000D+00
   331  3.3000000000000D+00  0.0000000000000D+00  0.0000000000000D+00
   332  3.3100000000000D+00  0.0000000000000D+00  0.0000000000000D+00
   333  3.3200000000000D+00  0.0000000000000D+00  0.0000000000000D+00
   334  3.3300000000000D+00  0.0000000000000D+00  0.0000000000000D+00
   335  3.3400000000000D+00  0.0000000000000D+00  0.0000000000000D+00
   336  3.3500000000000D+00  0.0000000000000D+00  0.0000000000000D+00
   337  3.3600000000000D+00  0.0000000000000D+00  0.0000000000000D+00
   338  3.3700000000000D+00  0.0000000000000D+00  0.0000000000000D+00
   339  3.3800000000000D+00  0.0000000000000D+00  0.0000000000000D+00
   340  3.3900000000000D+00  0.0000000000000D+00  0.0000000000000D+00
   341  3.4000000000000D+00  0.0000000000000D+00  0.0000000000000D+00
   342  3.4100000000000D+00  0.0000000000000D+00  0.0000000000000D+00
   343  3.4200000000000D+00  0.0000000000000D+00  0.0000000000000D+00
   344  3.4300000000000D+00  0.0000000000000D+00  0.0000000000000D+00
   345  3.4400000000000D+00  0.0000000000000D+00  0.0000000000000D+00
   346  3.4500000000000D+00  0.0000000000000D+00  0.0000000000000D+00
   347  3.4600000000000D+00  0.0000000000000D+00  0.0000000000000D+00
   348  3.4700000000000D+00  0.0000000000000D+00  0.0000000000000D+00
   349  3.4800000000000D+00  0.0000000000000D+00  0.0000000000000D+00
   350  3.4900000000000D+00  0.0000000000000D+00  0.0000000000000D+00
   351  3.5000000000000D+00  0.0000000000000D+00  0.0000000000000D+00
   352  3.5100000000000D+00  0.0000000000000D+00  0.0000000000000D+00
   353  3.5200000000000D+00  0.0000000000000D+00  0.0000000000000D+00
   354  3.5300000000000D+00  0.0000000000000D+00  0.0000000000000D+00
   355  3.5400000000000D+00  0.0000000000000D+00  0.0000000000000D+00
   356  3.5500000000000D+00  0.0000000000000D+00  0.0000000000000D+00
   357  3.5600000000000D+00  0.0000000000000D+00  0.0000000000000D+00
   358  3.5700000000000D+00  0.0000000000000D+00  0.0000000000000D+00
   359  3.5800000000000D+00  0.0000000000000D+00  0.0000000000000D+00
   360  3.5900000000000D+00  0.0000000000000D+00  0.0000000000000D+00
   361  3.6000000000000D+00  0.0000000000000D+00  0.0000000000000D+00
   362  3.6100000000000D+00  0.0000000000000D+00  0.0000000000000D+00
   363  3.6200000000000D+00  0.0000000000000D+00  0.0000000000000D+00
   364  3.6300000000000D+00  0.0000000000000D+00  0.0000000000000D+00
   365  3.6400000000000D+00  0.0000000000000D+00  0.0000000000000D+00
   366  3.6500000000000D+00  0.0000000000000D+00  0.0000000000000D+00
   367  3.6600000000000D+00  0.0000000000000D+00  0.0000000000000D+00
   368  3.6700000000000D+00  0.0000000000000D+00  0.0000000000000D+00
   369  3.6800000000000D+00  0.0000000000000D+00  0.0000000000000D+00
   370  3.6900000000000D+00  0.0000000000000D+00  0.0000000000000D+00
   371  3.7000000000000D+00  0.0000000000000D+00  0.0000000000000D+00
   372  3.7100000000000D+00  0.0000000000000D+00  0.0000000000000D+00
   373  3.7200000000000D+00  0.0000000000000D+00  0.0000000000000D+00
   374  3.7300000000000D+00  0.0000000000000D+00  0.0000000000000D+00
   375  3.7400000000000D+00  0.0000000000000D+00  0.0000000000000D+00
   376  3.7500000000000D+00  0.0000000000000D+00  0.0000000000000D+00
   377  3.7600000000000D+00  0.0000000000000D+00  0.0000000000000D+00
   378  3.7700000000000D+00  0.0000000000000D+00  0.0000000000000D+00
   379  3.7800000000000D+00  0.0000000000000D+00  0.0000000000000D+00
   380  3.7900000000000D+00  0.0000000000000D+00  0.0000000000000D+00
   381  3.8000000000000D+00  0.0000000000000D+00  0.0000000000000D+00
   382  3.8100000000000D+00  0.0000000000000D+00  0.0000000000000D+00
   383  3.8200000000000D+00  0.0000000000000D+00  0.0000000000000D+00
   384  3.8300000000000D+00  0.0000000000000D+00  0.0000000000000D+00
   385  3.8400000000000D+00  0.0000000000000D+00  0.0000000000000D+00
   386  3.8500000000000D+00  0.0000000000000D+00  0.0000000000000D+00
   387  3.8600000000000D+00  0.0000000000000D+00  0.0000000000000D+00
   388  3.8700000000000D+00  0.0000000000000D+00  0.0000000000000D+00
   389  3.8800000000000D+00  0.0000000000000D+00  0.0000000000000D+00
   390  3.8900000000000D+00  0.0000000000000D+00  0.0000000000000D+00
   391  3.9000000000000D+00  0.0000000000000D+00  0.0000000000000D+00
   392  3.9100000000000D+00  0.0000000000000D+00  0.0000000000000D+00
   393  3.9200000000000D+00  0.0000000000000D+00  0.0000000000000D+00
   394  3.9300000000000D+00  0.0000000000000D+00  0.0000000000000D+00
   395  3.9400000000000D+00  0.0000000000000D+00  0.0000000000000D+00
   396  3.9500000000000D+00  0.0000000000000D+00  0.0000000000000D+00
   397  3.9600000000000D+00  0.0000000000000D+00  0.0000000000000D+00
   398  3.9700000000000D+00  0.0000000000000D+00  0.0000000000000D+00
   399  3.9800000000000D+00  0.0000000000000D+00  0.0000000000000D+00
   400  3.9900000000000D+00  0.0000000000000D+00  0.0000000000000D+00
   401  4.0000000000000D+00  0.0000000000000D+00  0.0000000000000D+00
   402  4.0100000000000D+00  0.0000000000000D+00  0.0000000000000D+00
   403  4.0200000000000D+00  0.0000000000000D+00  0.0000000000000D+00
   404  4.0300000000000D+00  0.0000000000000D+00  0.0000000000000D+00
   405  4.0400000000000D+00  0.0000000000000D+00  0.0000000000000D+00
   406  4.0500000000000D+00  0.0000000000000D+00  0.0000000000000D+00
   407  4.0600000000000D+00  0.0000000000000D+00  0.0000000000000D+00
   408  4.0700000000000D+00  0.0000000000000D+00  0.0000000000000D+00
   409  4.0800000000000D+00  0.0000000000000D+00  0.0000000000000D+00
   410  4.0900000000000D+00  0.0000000000000D+00  0.0000000000000D+00
   411  4.1000000000000D+00  0.0000000000000D+00  0.0000000000000D+00
   412  4.1100000000000D+00  0.0000000000000D+00  0.0000000000000D+00
   413  4.1200000000000D+00  0.0000000000000D+00  0.0000000000000D+00
   414  4.1300000000000D+00  0.0000000000000D+00  0.0000000000000D+00
   415  4.1400000000000D+00  0.0000000000000D+00  0.0000000000000D+00
   416  4.1500000000000D+00  0.0000000000000D+00  0.0000000000000D+00
   417  4.1600000000000D+00  0.0000000000000D+00  0.0000000000000D+00
   418  4.1700000000000D+00  0.0000000000000D+00  0.0000000000000D+00
   419  4.1800000000000D+00  0.0000000000000D+00  0.0000000000000D+00
   420  4.1900000000000D+00  0.0000000000000D+00  0.0000000000000D+00
   421  4.2000000000000D+00  0.0000000000000D+00  0.0000000000000D+00
   422  4.2100000000000D+00  0.0000000000000D+00  0.0000000000000D+00