Pr    ONCVPSP-3.3.0  r_core=   2.02064   1.61087   1.85877   1.66956
     59.0000     13.0000      220408    zatom,zion,pspd
     8       2   3     4   600     0    pspcod,pspxc,lmax,lloc,mmax,r2well
  5.99000000  0.00000000  0.00000000    rchrg fchrg qchrg
     2     2     2     2     0    nproj
     1     1           extension_switch
   0                         7.0096737843517D+00  6.4140768985187D-01
     1  0.0000000000000D+00 -1.7962409337713D-11  1.1009085310043D-10
     2  1.0000000000000D-02  3.5606954227259D-02 -1.4649671900033D-02
     3  2.0000000000000D-02  7.1184011855057D-02 -2.9222245071534D-02
     4  3.0000000000000D-02  1.0670134531382D-01 -4.3641148709501D-02
     5  4.0000000000000D-02  1.4212926455370D-01 -5.7830863879448D-02
     6  5.0000000000000D-02  1.7743828445903D-01 -7.1717439539229D-02
     7  6.0000000000000D-02  2.1259919066088D-01 -8.5228996742818D-02
     8  7.0000000000000D-02  2.4758310323508D-01 -9.8296217216275D-02
     9  8.0000000000000D-02  2.8236153779089D-01 -1.1085281260622D-01
    10  9.0000000000000D-02  3.1690646347756D-01 -1.2283597083742D-01
    11  1.0000000000000D-01  3.5119035746276D-01 -1.3418677617789D-01
    12  1.1000000000000D-01  3.8518625546648D-01 -1.4485059979606D-01
    13  1.2000000000000D-01  4.1886779796857D-01 -1.5477745780392D-01
    14  1.3000000000000D-01  4.5220927174502D-01 -1.6392233401159D-01
    15  1.4000000000000D-01  4.8518564642880D-01 -1.7224546487078D-01
    16  1.5000000000000D-01  5.1777260583487D-01 -1.7971258435530D-01
    17  1.6000000000000D-01  5.4994657383459D-01 -1.8629512681511D-01
    18  1.7000000000000D-01  5.8168473461348D-01 -1.9197038614415D-01
    19  1.8000000000000D-01  6.1296504719651D-01 -1.9672162991878D-01
    20  1.9000000000000D-01  6.4376625417665D-01 -2.0053816749266D-01
    21  2.0000000000000D-01  6.7406788463567D-01 -2.0341537137130D-01
    22  2.1000000000000D-01  7.0385025129956D-01 -2.0535465153439D-01
    23  2.2000000000000D-01  7.3309444202500D-01 -2.0636338272353D-01
    24  2.3000000000000D-01  7.6178230576719D-01 -2.0645478506505D-01
    25  2.4000000000000D-01  7.8989643323260D-01 -2.0564775874909D-01
    26  2.5000000000000D-01  8.1742013247244D-01 -2.0396667383604D-01
    27  2.6000000000000D-01  8.4433739972350D-01 -2.0144111660540D-01
    28  2.7000000000000D-01  8.7063288585227D-01 -1.9810559419968D-01
    29  2.8000000000000D-01  8.9629185880443D-01 -1.9399919964288D-01
    30  2.9000000000000D-01  9.2130016250625D-01 -1.8916523962823D-01
    31  3.0000000000000D-01  9.4564417270485D-01 -1.8365082777031D-01
    32  3.1000000000000D-01  9.6931075027187D-01 -1.7750644629983D-01
    33  3.2000000000000D-01  9.9228719252808D-01 -1.7078547944395D-01
    34  3.3000000000000D-01  1.0145611831758D+00 -1.6354372197739D-01
    35  3.4000000000000D-01  1.0361207414502D+00 -1.5583886664958D-01
    36  3.5000000000000D-01  1.0569541711199D+00 -1.4772997438684D-01
    37  3.6000000000000D-01  1.0770500099821D+00 -1.3927693133602D-01
    38  3.7000000000000D-01  1.0963969805057D+00 -1.3053989695450D-01
    39  3.8000000000000D-01  1.1149839422785D+00 -1.2157874745943D-01
    40  3.9000000000000D-01  1.1327998469136D+00 -1.1245251902677D-01
    41  4.0000000000000D-01  1.1498336960598D+00 -1.0321885517476D-01
    42  4.1000000000000D-01  1.1660745031458D+00 -9.3933462778195D-02
    43  4.2000000000000D-01  1.1815112594690D+00 -8.4649581137707D-02
    44  4.3000000000000D-01  1.1961329052120D+00 -7.5417468471414D-02
    45  4.4000000000000D-01  1.2099283059347D+00 -6.6283910105934D-02
    46  4.5000000000000D-01  1.2228862350566D+00 -5.7291752518888D-02
    47  4.6000000000000D-01  1.2349953627926D+00 -4.8479467226651D-02
    48  4.7000000000000D-01  1.2462442519621D+00 -3.9880748319552D-02
    49  4.8000000000000D-01  1.2566213610317D+00 -3.1524147223809D-02
    50  4.9000000000000D-01  1.2661150546938D+00 -2.3432748014528D-02
    51  5.0000000000000D-01  1.2747136222188D+00 -1.5623886321738D-02
    52  5.1000000000000D-01  1.2824053037500D+00 -8.1089145596135D-03
    53  5.2000000000000D-01  1.2891783246379D+00 -8.9301587305860D-04
    54  5.3000000000000D-01  1.2950209378373D+00  6.0249311634587D-03
    55  5.4000000000000D-01  1.2999214743111D+00  1.2652435440875D-02
    56  5.5000000000000D-01  1.3038684013069D+00  1.9003422547687D-02
    57  5.6000000000000D-01  1.3068503882923D+00  2.5098209496406D-02
    58  5.7000000000000D-01  1.3088563802540D+00  3.0963424526134D-02
    59  5.8000000000000D-01  1.3098756779849D+00  3.6631871996174D-02
    60  5.9000000000000D-01  1.3098980249046D+00  4.2142342825098D-02
    61  6.0000000000000D-01  1.3089136998819D+00  4.7539371368138D-02
    62  6.1000000000000D-01  1.3069136154518D+00  5.2872940065024D-02
    63  6.2000000000000D-01  1.3038894207483D+00  5.8198133621190D-02
    64  6.3000000000000D-01  1.2998336084077D+00  6.3574744907472D-02
    65  6.4000000000000D-01  1.2947396246344D+00  6.9066835172760D-02
    66  6.5000000000000D-01  1.2886019815627D+00  7.4742251554054D-02
    67  6.6000000000000D-01  1.2814163710009D+00  8.0672105240192D-02
    68  6.7000000000000D-01  1.2731797785976D+00  8.6930213990962D-02
    69  6.8000000000000D-01  1.2638905974361D+00  9.3592513031297D-02
    70  6.9000000000000D-01  1.2535487400344D+00  1.0073643862769D-01
    71  7.0000000000000D-01  1.2421557477109D+00  1.0844028890721D-01
    72  7.1000000000000D-01  1.2297148962658D+00  1.1678256669532D-01
    73  7.2000000000000D-01  1.2162312969275D+00  1.2584130932569D-01
    74  7.3000000000000D-01  1.2017119915262D+00  1.3569341051089D-01
    75  7.4000000000000D-01  1.1861660408756D+00  1.4641393945512D-01
    76  7.5000000000000D-01  1.1696046053738D+00  1.5807546243752D-01
    77  7.6000000000000D-01  1.1520410168777D+00  1.7074737209669D-01
    78  7.7000000000000D-01  1.1334908409554D+00  1.8449522960325D-01
    79  7.8000000000000D-01  1.1139719286822D+00  1.9938012481603D-01
    80  7.9000000000000D-01  1.0935044572183D+00  2.1545805938218D-01
    81  8.0000000000000D-01  1.0721109584859D+00  2.3277935755904D-01
    82  8.1000000000000D-01  1.0498163353528D+00  2.5138810931085D-01
    83  8.2000000000000D-01  1.0266478648292D+00  2.7132164996651D-01
    84  8.3000000000000D-01  1.0026351878866D+00  2.9261008041735D-01
    85  8.4000000000000D-01  9.7781028562023D-01  3.1527583149090D-01
    86  8.5000000000000D-01  9.5220744159686D-01  3.3933327575934D-01
    87  8.6000000000000D-01  9.2586319034586D-01  3.6478838963453D-01
    88  8.7000000000000D-01  8.9881625208182D-01  3.9163846816894D-01
    89  8.8000000000000D-01  8.7110745387125D-01  4.1987189452826D-01
    90  8.9000000000000D-01  8.4277963758511D-01  4.4946796563127D-01
    91  9.0000000000000D-01  8.1387755510611D-01  4.8039677497140D-01
    92  9.1000000000000D-01  7.8444775138514D-01  5.1261915314779D-01
    93  9.2000000000000D-01  7.5453843606311D-01  5.4608666614664D-01
    94  9.3000000000000D-01  7.2419934449134D-01  5.8074167093294D-01
    95  9.4000000000000D-01  6.9348158909402D-01  6.1651742744136D-01
    96  9.5000000000000D-01  6.6243750211824D-01  6.5333826560666D-01
    97  9.6000000000000D-01  6.3112047090987D-01  6.9111980564299D-01
    98  9.7000000000000D-01  5.9958476693555D-01  7.2976922938098D-01
    99  9.8000000000000D-01  5.6788536984011D-01  7.6918560010910D-01
   100  9.9000000000000D-01  5.3607778788432D-01  8.0926022803920D-01
   101  1.0000000000000D+00  5.0421787614872D-01  8.4987707823562D-01
   102  1.0100000000000D+00  4.7236165391447D-01  8.9091321761630D-01
   103  1.0200000000000D+00  4.4056512263868D-01  9.3223929745481D-01
   104  1.0300000000000D+00  4.0888408593382D-01  9.7372006769336D-01
   105  1.0400000000000D+00  3.7737397293156D-01  1.0152149193073D+00
   106  1.0500000000000D+00  3.4608966636437D-01  1.0565784509639D+00
   107  1.0600000000000D+00  3.1508533663345D-01  1.0976610562750D+00
   108  1.0700000000000D+00  2.8441428304443D-01  1.1383095280681D+00
   109  1.0800000000000D+00  2.5412878328985D-01  1.1783676762828D+00
   110  1.0900000000000D+00  2.2427995214188D-01  1.2176769563257D+00
   111  1.1000000000000D+00  1.9491761016730D-01  1.2560771050449D+00
   112  1.1100000000000D+00  1.6609016313403D-01  1.2934067818075D+00
   113  1.1200000000000D+00  1.3784449258573D-01  1.3295042126203D+00
   114  1.1300000000000D+00  1.1022585792062D-01  1.3642078355665D+00
   115  1.1400000000000D+00  8.3277810063015D-02  1.3973569464374D+00
   116  1.1500000000000D+00  5.7042116646570D-02  1.4287923438605D+00
   117  1.1600000000000D+00  3.1558698377093D-02  1.4583569738378D+00
   118  1.1700000000000D+00  6.8655761007655D-03  1.4858965739621D+00
   119  1.1800000000000D+00 -1.7001172207909D-02  1.5112603183381D+00
   120  1.1900000000000D+00 -4.0007445488632D-02  1.5343014646173D+00
   121  1.2000000000000D+00 -6.2121145839721D-02  1.5548780050597D+00
   122  1.2100000000000D+00 -8.3312198314671D-02  1.5728533239471D+00
   123  1.2200000000000D+00 -1.0355256587203D-01  1.5880968641902D+00
   124  1.2300000000000D+00 -1.2281626121770D-01  1.6004848061513D+00
   125  1.2400000000000D+00 -1.4107935737817D-01  1.6099007619416D+00
   126  1.2500000000000D+00 -1.5831999908634D-01  1.6162364887265D+00
   127  1.2600000000000D+00 -1.7451841705965D-01  1.6193926242990D+00
   128  1.2700000000000D+00 -1.8965694733195D-01  1.6192794483085D+00
   129  1.2800000000000D+00 -2.0372005788025D-01  1.6158176721955D+00
   130  1.2900000000000D+00 -2.1669438463899D-01  1.6089392599337D+00
   131  1.3000000000000D+00 -2.2856877906000D-01  1.5985882818746D+00
   132  1.3100000000000D+00 -2.3933436921010D-01  1.5847218025874D+00
   133  1.3200000000000D+00 -2.4898463596478D-01  1.5673108015192D+00
   134  1.3300000000000D+00 -2.5751550613815D-01  1.5463411265240D+00
   135  1.3400000000000D+00 -2.6492546353052D-01  1.5218144758919D+00
   136  1.3500000000000D+00 -2.7121567844530D-01  1.4937494028115D+00
   137  1.3600000000000D+00 -2.7639015662591D-01  1.4621823376977D+00
   138  1.3700000000000D+00 -2.8045590652143D-01  1.4271686147226D+00
   139  1.3800000000000D+00 -2.8342312430139D-01  1.3887834913026D+00
   140  1.3900000000000D+00 -2.8530539535744D-01  1.3471231460130D+00
   141  1.4000000000000D+00 -2.8611990812319D-01  1.3023056283425D+00
   142  1.4100000000000D+00 -2.8588767883727D-01  1.2544717452775D+00
   143  1.4200000000000D+00 -2.8463378059370D-01  1.2037858476461D+00
   144  1.4300000000000D+00 -2.8238757123745D-01  1.1504364844466D+00
   145  1.4400000000000D+00 -2.7918291448468D-01  1.0946368922733D+00
   146  1.4500000000000D+00 -2.7505838140054D-01  1.0366252578382D+00
   147  1.4600000000000D+00 -2.7005742751525D-01  9.7666472431790D-01
   148  1.4700000000000D+00 -2.6422852766811D-01  9.1504305919502D-01
   149  1.4800000000000D+00 -2.5762525807382D-01  8.5207193111693D-01
   150  1.4900000000000D+00 -2.5030630906314D-01  7.8808571889093D-01
   151  1.5000000000000D+00 -2.4233540592390D-01  7.2343975207105D-01
   152  1.5100000000000D+00 -2.3378112548239D-01  6.5850792286292D-01
   153  1.5200000000000D+00 -2.2471657156502D-01  5.9367951222770D-01
   154  1.5300000000000D+00 -2.1521889900890D-01  5.2935517788819D-01
   155  1.5400000000000D+00 -2.0536864001181D-01  4.6594191021987D-01
   156  1.5500000000000D+00 -1.9524881395474D-01  4.0384686998262D-01
   157  1.5600000000000D+00 -1.8494375598880D-01  3.4346979243368D-01
   158  1.5700000000000D+00 -1.7453774631212D-01  2.8519457560688D-01
   159  1.5800000000000D+00 -1.6411296322826D-01  2.2937709225367D-01
   160  1.5900000000000D+00 -1.5374796631362D-01  1.7633685156760D-01
   161  1.6000000000000D+00 -1.4351447775653D-01  1.2633915156153D-01
   162  1.6100000000000D+00 -1.3347280525249D-01  7.9568216081223D-02
   163  1.6200000000000D+00 -1.2367264993460D-01  3.6137649334012D-02
   164  1.6300000000000D+00 -1.1415361478674D-01 -3.9000333945389D-03
   165  1.6400000000000D+00 -1.0494806525307D-01 -4.0533135309973D-02
   166  1.6500000000000D+00 -9.6085835082976D-02 -7.3758003301887D-02
   167  1.6600000000000D+00 -8.7592856186701D-02 -1.0358774392924D-01
   168  1.6700000000000D+00 -7.9490721854017D-02 -1.3005565768131D-01
   169  1.6800000000000D+00 -7.1797286769676D-02 -1.5321064058649D-01
   170  1.6900000000000D+00 -6.4526434171761D-02 -1.7311879360513D-01
   171  1.7000000000000D+00 -5.7688264113911D-02 -1.8986211741293D-01
   172  1.7100000000000D+00 -5.1289172818664D-02 -2.0353801917274D-01
   173  1.7200000000000D+00 -4.5331978717563D-02 -2.1425855814412D-01
   174  1.7300000000000D+00 -3.9816069273138D-02 -2.2214960065877D-01
   175  1.7400000000000D+00 -3.4737570164126D-02 -2.2734987759085D-01
   176  1.7500000000000D+00 -3.0089532775690D-02 -2.3000996288167D-01
   177  1.7600000000000D+00 -2.5862141108222D-02 -2.3029116836634D-01
   178  1.7700000000000D+00 -2.2042934164134D-02 -2.2836437291111D-01
   179  1.7800000000000D+00 -1.8617044151708D-02 -2.2440878462268D-01
   180  1.7900000000000D+00 -1.5567447020433D-02 -2.1861065206003D-01
   181  1.8000000000000D+00 -1.2875224728566D-02 -2.1116192745990D-01
   182  1.8100000000000D+00 -1.0519836385980D-02 -2.0225889504811D-01
   183  1.8200000000000D+00 -8.4793967579660D-03 -1.9210077157728D-01
   184  1.8300000000000D+00 -6.7309598794347D-03 -1.8088828942398D-01
   185  1.8400000000000D+00 -5.2508056128047D-03 -1.6882227229480D-01
   186  1.8500000000000D+00 -4.0147272129677D-03 -1.5610221249263D-01
   187  1.8600000000000D+00 -2.9983176507131D-03 -1.4292486007268D-01
   188  1.8700000000000D+00 -2.1772524428534D-03 -1.2948283436138D-01
   189  1.8800000000000D+00 -1.5275675545678D-03 -1.1596326432206D-01
   190  1.8900000000000D+00 -1.0259290219061D-03 -1.0254647335960D-01
   191  1.9000000000000D+00 -6.4989435599114D-04 -8.9404708106129D-02
   192  1.9100000000000D+00 -3.7816121884635D-04 -7.6700932116467D-02
   193  1.9200000000000D+00 -1.9080430011048D-04 -6.4587680036462D-02
   194  1.9300000000000D+00 -6.9496307510530D-05 -5.3205991141716D-02
   195  1.9400000000000D+00  2.2871136153817D-06 -4.2684423029256D-02
   196  1.9500000000000D+00  3.9081283848490D-05 -3.3138557391770D-02
   197  1.9600000000000D+00  5.3285698433746D-05 -2.4676410034609D-02
   198  1.9700000000000D+00  5.4910061364298D-05 -1.7364519214313D-02
   199  1.9800000000000D+00  5.1076613883717D-05 -1.1246047147978D-02
   200  1.9900000000000D+00  4.7954954503388D-05 -6.4513384108317D-03
   201  2.0000000000000D+00  4.9797934514469D-05 -3.0987106568762D-03
   202  2.0100000000000D+00  5.4830361208869D-05 -1.1268008231743D-03
   203  2.0200000000000D+00  5.2832142612018D-05 -1.9570292852625D-04
   204  2.0300000000000D+00  3.3738031430044D-05  9.1044530307654D-05
   205  2.0400000000000D+00  9.8152959634045D-06  5.4017968703986D-05
   206  2.0500000000000D+00 -4.3051853325405D-06 -2.9692727837385D-05
   207  2.0600000000000D+00 -4.8063360552425D-06 -3.8677363582848D-05
   208  2.0700000000000D+00  1.1695906776070D-07  5.9004109136202D-07
   209  2.0800000000000D+00  1.2558604658933D-06  6.9962344800586D-06
   210  2.0900000000000D+00  5.8755561129989D-07  3.5185904072630D-06
   211  2.1000000000000D+00 -1.0631441972789D-07  3.3050194745379D-07
   212  2.1100000000000D+00 -1.3243789359640D-07  4.1171255848753D-07
   213  2.1200000000000D+00  0.0000000000000D+00  0.0000000000000D+00
   214  2.1300000000000D+00  0.0000000000000D+00  0.0000000000000D+00
   215  2.1400000000000D+00  0.0000000000000D+00  0.0000000000000D+00
   216  2.1500000000000D+00  0.0000000000000D+00  0.0000000000000D+00
   217  2.1600000000000D+00  0.0000000000000D+00  0.0000000000000D+00
   218  2.1700000000000D+00  0.0000000000000D+00  0.0000000000000D+00
   219  2.1800000000000D+00  0.0000000000000D+00  0.0000000000000D+00
   220  2.1900000000000D+00  0.0000000000000D+00  0.0000000000000D+00
   221  2.2000000000000D+00  0.0000000000000D+00  0.0000000000000D+00
   222  2.2100000000000D+00  0.0000000000000D+00  0.0000000000000D+00
   223  2.2200000000000D+00  0.0000000000000D+00  0.0000000000000D+00
   224  2.2300000000000D+00  0.0000000000000D+00  0.0000000000000D+00
   225  2.2400000000000D+00  0.0000000000000D+00  0.0000000000000D+00
   226  2.2500000000000D+00  0.0000000000000D+00  0.0000000000000D+00
   227  2.2600000000000D+00  0.0000000000000D+00  0.0000000000000D+00
   228  2.2700000000000D+00  0.0000000000000D+00  0.0000000000000D+00
   229  2.2800000000000D+00  0.0000000000000D+00  0.0000000000000D+00
   230  2.2900000000000D+00  0.0000000000000D+00  0.0000000000000D+00
   231  2.3000000000000D+00  0.0000000000000D+00  0.0000000000000D+00
   232  2.3100000000000D+00  0.0000000000000D+00  0.0000000000000D+00
   233  2.3200000000000D+00  0.0000000000000D+00  0.0000000000000D+00
   234  2.3300000000000D+00  0.0000000000000D+00  0.0000000000000D+00
   235  2.3400000000000D+00  0.0000000000000D+00  0.0000000000000D+00
   236  2.3500000000000D+00  0.0000000000000D+00  0.0000000000000D+00
   237  2.3600000000000D+00  0.0000000000000D+00  0.0000000000000D+00
   238  2.3700000000000D+00  0.0000000000000D+00  0.0000000000000D+00
   239  2.3800000000000D+00  0.0000000000000D+00  0.0000000000000D+00
   240  2.3900000000000D+00  0.0000000000000D+00  0.0000000000000D+00
   241  2.4000000000000D+00  0.0000000000000D+00  0.0000000000000D+00
   242  2.4100000000000D+00  0.0000000000000D+00  0.0000000000000D+00
   243  2.4200000000000D+00  0.0000000000000D+00  0.0000000000000D+00
   244  2.4300000000000D+00  0.0000000000000D+00  0.0000000000000D+00
   245  2.4400000000000D+00  0.0000000000000D+00  0.0000000000000D+00
   246  2.4500000000000D+00  0.0000000000000D+00  0.0000000000000D+00
   247  2.4600000000000D+00  0.0000000000000D+00  0.0000000000000D+00
   248  2.4700000000000D+00  0.0000000000000D+00  0.0000000000000D+00
   249  2.4800000000000D+00  0.0000000000000D+00  0.0000000000000D+00
   250  2.4900000000000D+00  0.0000000000000D+00  0.0000000000000D+00
   251  2.5000000000000D+00  0.0000000000000D+00  0.0000000000000D+00
   252  2.5100000000000D+00  0.0000000000000D+00  0.0000000000000D+00
   253  2.5200000000000D+00  0.0000000000000D+00  0.0000000000000D+00
   254  2.5300000000000D+00  0.0000000000000D+00  0.0000000000000D+00
   255  2.5400000000000D+00  0.0000000000000D+00  0.0000000000000D+00
   256  2.5500000000000D+00  0.0000000000000D+00  0.0000000000000D+00
   257  2.5600000000000D+00  0.0000000000000D+00  0.0000000000000D+00
   258  2.5700000000000D+00  0.0000000000000D+00  0.0000000000000D+00
   259  2.5800000000000D+00  0.0000000000000D+00  0.0000000000000D+00
   260  2.5900000000000D+00  0.0000000000000D+00  0.0000000000000D+00
   261  2.6000000000000D+00  0.0000000000000D+00  0.0000000000000D+00
   262  2.6100000000000D+00  0.0000000000000D+00  0.0000000000000D+00
   263  2.6200000000000D+00  0.0000000000000D+00  0.0000000000000D+00
   264  2.6300000000000D+00  0.0000000000000D+00  0.0000000000000D+00
   265  2.6400000000000D+00  0.0000000000000D+00  0.0000000000000D+00
   266  2.6500000000000D+00  0.0000000000000D+00  0.0000000000000D+00
   267  2.6600000000000D+00  0.0000000000000D+00  0.0000000000000D+00
   268  2.6700000000000D+00  0.0000000000000D+00  0.0000000000000D+00
   269  2.6800000000000D+00  0.0000000000000D+00  0.0000000000000D+00
   270  2.6900000000000D+00  0.0000000000000D+00  0.0000000000000D+00
   271  2.7000000000000D+00  0.0000000000000D+00  0.0000000000000D+00
   272  2.7100000000000D+00  0.0000000000000D+00  0.0000000000000D+00
   273  2.7200000000000D+00  0.0000000000000D+00  0.0000000000000D+00
   274  2.7300000000000D+00  0.0000000000000D+00  0.0000000000000D+00
   275  2.7400000000000D+00  0.0000000000000D+00  0.0000000000000D+00
   276  2.7500000000000D+00  0.0000000000000D+00  0.0000000000000D+00
   277  2.7600000000000D+00  0.0000000000000D+00  0.0000000000000D+00
   278  2.7700000000000D+00  0.0000000000000D+00  0.0000000000000D+00
   279  2.7800000000000D+00  0.0000000000000D+00  0.0000000000000D+00
   280  2.7900000000000D+00  0.0000000000000D+00  0.0000000000000D+00
   281  2.8000000000000D+00  0.0000000000000D+00  0.0000000000000D+00
   282  2.8100000000000D+00  0.0000000000000D+00  0.0000000000000D+00
   283  2.8200000000000D+00  0.0000000000000D+00  0.0000000000000D+00
   284  2.8300000000000D+00  0.0000000000000D+00  0.0000000000000D+00
   285  2.8400000000000D+00  0.0000000000000D+00  0.0000000000000D+00
   286  2.8500000000000D+00  0.0000000000000D+00  0.0000000000000D+00
   287  2.8600000000000D+00  0.0000000000000D+00  0.0000000000000D+00
   288  2.8700000000000D+00  0.0000000000000D+00  0.0000000000000D+00
   289  2.8800000000000D+00  0.0000000000000D+00  0.0000000000000D+00
   290  2.8900000000000D+00  0.0000000000000D+00  0.0000000000000D+00
   291  2.9000000000000D+00  0.0000000000000D+00  0.0000000000000D+00
   292  2.9100000000000D+00  0.0000000000000D+00  0.0000000000000D+00
   293  2.9200000000000D+00  0.0000000000000D+00  0.0000000000000D+00
   294  2.9300000000000D+00  0.0000000000000D+00  0.0000000000000D+00
   295  2.9400000000000D+00  0.0000000000000D+00  0.0000000000000D+00
   296  2.9500000000000D+00  0.0000000000000D+00  0.0000000000000D+00
   297  2.9600000000000D+00  0.0000000000000D+00  0.0000000000000D+00
   298  2.9700000000000D+00  0.0000000000000D+00  0.0000000000000D+00
   299  2.9800000000000D+00  0.0000000000000D+00  0.0000000000000D+00
   300  2.9900000000000D+00  0.0000000000000D+00  0.0000000000000D+00
   301  3.0000000000000D+00  0.0000000000000D+00  0.0000000000000D+00
   302  3.0100000000000D+00  0.0000000000000D+00  0.0000000000000D+00
   303  3.0200000000000D+00  0.0000000000000D+00  0.0000000000000D+00
   304  3.0300000000000D+00  0.0000000000000D+00  0.0000000000000D+00
   305  3.0400000000000D+00  0.0000000000000D+00  0.0000000000000D+00
   306  3.0500000000000D+00  0.0000000000000D+00  0.0000000000000D+00
   307  3.0600000000000D+00  0.0000000000000D+00  0.0000000000000D+00
   308  3.0700000000000D+00  0.0000000000000D+00  0.0000000000000D+00
   309  3.0800000000000D+00  0.0000000000000D+00  0.0000000000000D+00
   310  3.0900000000000D+00  0.0000000000000D+00  0.0000000000000D+00
   311  3.1000000000000D+00  0.0000000000000D+00  0.0000000000000D+00
   312  3.1100000000000D+00  0.0000000000000D+00  0.0000000000000D+00
   313  3.1200000000000D+00  0.0000000000000D+00  0.0000000000000D+00
   314  3.1300000000000D+00  0.0000000000000D+00  0.0000000000000D+00
   315  3.1400000000000D+00  0.0000000000000D+00  0.0000000000000D+00
   316  3.1500000000000D+00  0.0000000000000D+00  0.0000000000000D+00
   317  3.1600000000000D+00  0.0000000000000D+00  0.0000000000000D+00
   318  3.1700000000000D+00  0.0000000000000D+00  0.0000000000000D+00
   319  3.1800000000000D+00  0.0000000000000D+00  0.0000000000000D+00
   320  3.1900000000000D+00  0.0000000000000D+00  0.0000000000000D+00
   321  3.2000000000000D+00  0.0000000000000D+00  0.0000000000000D+00
   322  3.2100000000000D+00  0.0000000000000D+00  0.0000000000000D+00
   323  3.2200000000000D+00  0.0000000000000D+00  0.0000000000000D+00
   324  3.2300000000000D+00  0.0000000000000D+00  0.0000000000000D+00
   325  3.2400000000000D+00  0.0000000000000D+00  0.0000000000000D+00
   326  3.2500000000000D+00  0.0000000000000D+00  0.0000000000000D+00
   327  3.2600000000000D+00  0.0000000000000D+00  0.0000000000000D+00
   328  3.2700000000000D+00  0.0000000000000D+00  0.0000000000000D+00
   329  3.2800000000000D+00  0.0000000000000D+00  0.0000000000000D+00
   330  3.2900000000000D+00  0.0000000000000D+00  0.0000000000000D+00
   331  3.3000000000000D+00  0.0000000000000D+00  0.0000000000000D+00
   332  3.3100000000000D+00  0.0000000000000D+00  0.0000000000000D+00
   333  3.3200000000000D+00  0.0000000000000D+00  0.0000000000000D+00
   334  3.3300000000000D+00  0.0000000000000D+00  0.0000000000000D+00
   335  3.3400000000000D+00  0.0000000000000D+00  0.0000000000000D+00
   336  3.3500000000000D+00  0.0000000000000D+00  0.0000000000000D+00
   337  3.3600000000000D+00  0.0000000000000D+00  0.0000000000000D+00
   338  3.3700000000000D+00  0.0000000000000D+00  0.0000000000000D+00
   339  3.3800000000000D+00  0.0000000000000D+00  0.0000000000000D+00
   340  3.3900000000000D+00  0.0000000000000D+00  0.0000000000000D+00
   341  3.4000000000000D+00  0.0000000000000D+00  0.0000000000000D+00
   342  3.4100000000000D+00  0.0000000000000D+00  0.0000000000000D+00
   343  3.4200000000000D+00  0.0000000000000D+00  0.0000000000000D+00
   344  3.4300000000000D+00  0.0000000000000D+00  0.0000000000000D+00
   345  3.4400000000000D+00  0.0000000000000D+00  0.0000000000000D+00
   346  3.4500000000000D+00  0.0000000000000D+00  0.0000000000000D+00
   347  3.4600000000000D+00  0.0000000000000D+00  0.0000000000000D+00
   348  3.4700000000000D+00  0.0000000000000D+00  0.0000000000000D+00
   349  3.4800000000000D+00  0.0000000000000D+00  0.0000000000000D+00
   350  3.4900000000000D+00  0.0000000000000D+00  0.0000000000000D+00
   351  3.5000000000000D+00  0.0000000000000D+00  0.0000000000000D+00
   352  3.5100000000000D+00  0.0000000000000D+00  0.0000000000000D+00
   353  3.5200000000000D+00  0.0000000000000D+00  0.0000000000000D+00
   354  3.5300000000000D+00  0.0000000000000D+00  0.0000000000000D+00
   355  3.5400000000000D+00  0.0000000000000D+00  0.0000000000000D+00
   356  3.5500000000000D+00  0.0000000000000D+00  0.0000000000000D+00
   357  3.5600000000000D+00  0.0000000000000D+00  0.0000000000000D+00
   358  3.5700000000000D+00  0.0000000000000D+00  0.0000000000000D+00
   359  3.5800000000000D+00  0.0000000000000D+00  0.0000000000000D+00
   360  3.5900000000000D+00  0.0000000000000D+00  0.0000000000000D+00
   361  3.6000000000000D+00  0.0000000000000D+00  0.0000000000000D+00
   362  3.6100000000000D+00  0.0000000000000D+00  0.0000000000000D+00
   363  3.6200000000000D+00  0.0000000000000D+00  0.0000000000000D+00
   364  3.6300000000000D+00  0.0000000000000D+00  0.0000000000000D+00
   365  3.6400000000000D+00  0.0000000000000D+00  0.0000000000000D+00
   366  3.6500000000000D+00  0.0000000000000D+00  0.0000000000000D+00
   367  3.6600000000000D+00  0.0000000000000D+00  0.0000000000000D+00
   368  3.6700000000000D+00  0.0000000000000D+00  0.0000000000000D+00
   369  3.6800000000000D+00  0.0000000000000D+00  0.0000000000000D+00
   370  3.6900000000000D+00  0.0000000000000D+00  0.0000000000000D+00
   371  3.7000000000000D+00  0.0000000000000D+00  0.0000000000000D+00
   372  3.7100000000000D+00  0.0000000000000D+00  0.0000000000000D+00
   373  3.7200000000000D+00  0.0000000000000D+00  0.0000000000000D+00
   374  3.7300000000000D+00  0.0000000000000D+00  0.0000000000000D+00
   375  3.7400000000000D+00  0.0000000000000D+00  0.0000000000000D+00
   376  3.7500000000000D+00  0.0000000000000D+00  0.0000000000000D+00
   377  3.7600000000000D+00  0.0000000000000D+00  0.0000000000000D+00
   378  3.7700000000000D+00  0.0000000000000D+00  0.0000000000000D+00
   379  3.7800000000000D+00  0.0000000000000D+00  0.0000000000000D+00
   380  3.7900000000000D+00  0.0000000000000D+00  0.0000000000000D+00
   381  3.8000000000000D+00  0.0000000000000D+00  0.0000000000000D+00
   382  3.8100000000000D+00  0.0000000000000D+00  0.0000000000000D+00
   383  3.8200000000000D+00  0.0000000000000D+00  0.0000000000000D+00
   384  3.8300000000000D+00  0.0000000000000D+00  0.0000000000000D+00
   385  3.8400000000000D+00  0.0000000000000D+00  0.0000000000000D+00
   386  3.8500000000000D+00  0.0000000000000D+00  0.0000000000000D+00
   387  3.8600000000000D+00  0.0000000000000D+00  0.0000000000000D+00
   388  3.8700000000000D+00  0.0000000000000D+00  0.0000000000000D+00
   389  3.8800000000000D+00  0.0000000000000D+00  0.0000000000000D+00
   390  3.8900000000000D+00  0.0000000000000D+00  0.0000000000000D+00
   391  3.9000000000000D+00  0.0000000000000D+00  0.0000000000000D+00
   392  3.9100000000000D+00  0.0000000000000D+00  0.0000000000000D+00
   393  3.9200000000000D+00  0.0000000000000D+00  0.0000000000000D+00
   394  3.9300000000000D+00  0.0000000000000D+00  0.0000000000000D+00
   395  3.9400000000000D+00  0.0000000000000D+00  0.0000000000000D+00
   396  3.9500000000000D+00  0.0000000000000D+00  0.0000000000000D+00
   397  3.9600000000000D+00  0.0000000000000D+00  0.0000000000000D+00
   398  3.9700000000000D+00  0.0000000000000D+00  0.0000000000000D+00
   399  3.9800000000000D+00  0.0000000000000D+00  0.0000000000000D+00
   400  3.9900000000000D+00  0.0000000000000D+00  0.0000000000000D+00
   401  4.0000000000000D+00  0.0000000000000D+00  0.0000000000000D+00
   402  4.0100000000000D+00  0.0000000000000D+00  0.0000000000000D+00
   403  4.0200000000000D+00  0.0000000000000D+00  0.0000000000000D+00
   404  4.0300000000000D+00  0.0000000000000D+00  0.0000000000000D+00
   405  4.0400000000000D+00  0.0000000000000D+00  0.0000000000000D+00
   406  4.0500000000000D+00  0.0000000000000D+00  0.0000000000000D+00
   407  4.0600000000000D+00  0.0000000000000D+00  0.0000000000000D+00
   408  4.0700000000000D+00  0.0000000000000D+00  0.0000000000000D+00
   409  4.0800000000000D+00  0.0000000000000D+00  0.0000000000000D+00
   410  4.0900000000000D+00  0.0000000000000D+00  0.0000000000000D+00
   411  4.1000000000000D+00  0.0000000000000D+00  0.0000000000000D+00
   412  4.1100000000000D+00  0.0000000000000D+00  0.0000000000000D+00
   413  4.1200000000000D+00  0.0000000000000D+00  0.0000000000000D+00
   414  4.1300000000000D+00  0.0000000000000D+00  0.0000000000000D+00
   415  4.1400000000000D+00  0.0000000000000D+00  0.0000000000000D+00
   416  4.1500000000000D+00  0.0000000000000D+00  0.0000000000000D+00
   417  4.1600000000000D+00  0.0000000000000D+00  0.0000000000000D+00
   418  4.1700000000000D+00  0.0000000000000D+00  0.0000000000000D+00
   419  4.1800000000000D+00  0.0000000000000D+00  0.0000000000000D+00
   420  4.1900000000000D+00  0.0000000000000D+00  0.0000000000000D+00
   421  4.2000000000000D+00  0.0000000000000D+00  0.0000000000000D+00
   422  4.2100000000000D+00  0.0000000000000D+00  0.0000000000000D+00