Xe    ONCVPSP-3.3.0  r_core=   1.40310   1.40310   1.40310
     54.0000     26.0000      220408    zatom,zion,pspd
     8       2   2     4   600     0    pspcod,pspxc,lmax,lloc,mmax,r2well
  5.99000000  0.00000000  0.00000000    rchrg fchrg qchrg
     2     2     2     0     0    nproj
     1     1           extension_switch
   0                         1.1932435209797D+01  1.9210064864752D+00
     1  0.0000000000000D+00 -4.4354497852339D-10  9.0066584745863D-10
     2  1.0000000000000D-02  9.7361688819378D-02 -1.1897392240692D-02
     3  2.0000000000000D-02  1.9439051071628D-01 -2.3582116658580D-02
     4  3.0000000000000D-02  2.9075508738633D-01 -3.4843152733955D-02
     5  4.0000000000000D-02  3.8612700750158D-01 -4.5472757356988D-02
     6  5.0000000000000D-02  4.8018228466430D-01 -5.5268060775307D-02
     7  6.0000000000000D-02  5.7260278503903D-01 -6.4032611882922D-02
     8  7.0000000000000D-02  6.6307761508416D-01 -7.1577857038039D-02
     9  8.0000000000000D-02  7.5130446024756D-01 -7.7724537497992D-02
    10  9.0000000000000D-02  8.3699086603404D-01 -8.2303991661076D-02
    11  1.0000000000000D-01  9.1985545348706D-01 -8.5159349591838D-02
    12  1.1000000000000D-01  9.9962906184578D-01 -8.6146608759740D-02
    13  1.2000000000000D-01  1.0760558119302D+00 -8.5135581520502D-02
    14  1.3000000000000D-01  1.1488940846612D+00 -8.2010706591373D-02
    15  1.4000000000000D-01  1.2179174100287D+00 -7.6671718591600D-02
    16  1.5000000000000D-01  1.2829152627621D+00 -6.9034171610553D-02
    17  1.6000000000000D-01  1.3436937619305D+00 -5.9029814700988D-02
    18  1.7000000000000D-01  1.4000762726751D+00 -4.6606819145129D-02
    19  1.8000000000000D-01  1.4519039092616D+00 -3.1729859277915D-02
    20  1.9000000000000D-01  1.4990359395978D+00 -1.4380050545811D-02
    21  2.0000000000000D-01  1.5413500923033D+00  5.4452496971694D-03
    22  2.1000000000000D-01  1.5787427683037D+00  2.7732771430051D-02
    23  2.2000000000000D-01  1.6111291597682D+00  5.2453782416162D-02
    24  2.3000000000000D-01  1.6384432799777D+00  7.9564649589196D-02
    25  2.4000000000000D-01  1.6606379084078D+00  1.0900749982062D-01
    26  2.5000000000000D-01  1.6776844559229D+00  1.4071096742986D-01
    27  2.6000000000000D-01  1.6895727554931D+00  1.7459101492415D-01
    28  2.7000000000000D-01  1.6963107842586D+00  2.1055181280458D-01
    29  2.8000000000000D-01  1.6979243230758D+00  2.4848666386082D-01
    30  2.9000000000000D-01  1.6944565598785D+00  2.8827895720604D-01
    31  3.0000000000000D-01  1.6859676432707D+00  3.2980313737975D-01
    32  3.1000000000000D-01  1.6725341927428D+00  3.7292567417015D-01
    33  3.2000000000000D-01  1.6542487717690D+00  4.1750601937382D-01
    34  3.3000000000000D-01  1.6312193297972D+00  4.6339753751283D-01
    35  3.4000000000000D-01  1.6035686188020D+00  5.1044839855406D-01
    36  3.5000000000000D-01  1.5714335896333D+00  5.5850242190835D-01
    37  3.6000000000000D-01  1.5349647728710D+00  6.0739986240721D-01
    38  3.7000000000000D-01  1.4943256483016D+00  6.5697813054078D-01
    39  3.8000000000000D-01  1.4496920064723D+00  7.0707244096493D-01
    40  3.9000000000000D-01  1.4012513050757D+00  7.5751638512040D-01
    41  4.0000000000000D-01  1.3492020221728D+00  8.0814242572016D-01
    42  4.1000000000000D-01  1.2937530075071D+00  8.5878231282058D-01
    43  4.2000000000000D-01  1.2351228323971D+00  9.0926742316169D-01
    44  4.3000000000000D-01  1.1735391379458D+00  9.5942902640712D-01
    45  4.4000000000000D-01  1.1092379805875D+00  1.0090984837985D+00
    46  4.5000000000000D-01  1.0424631733166D+00  1.0581073865273D+00
    47  4.6000000000000D-01  9.7346562033242D-01  1.1062876427820D+00
    48  4.7000000000000D-01  9.0250264229760D-01  1.1534715239213D+00
    49  4.8000000000000D-01  8.2983728896361D-01  1.1994916815169D+00
    50  4.9000000000000D-01  7.5573763557352D-01  1.2441811480788D+00
    51  5.0000000000000D-01  6.8047605922554D-01  1.2873733350946D+00
    52  5.1000000000000D-01  6.0432849127582D-01  1.3289020425587D+00
    53  5.2000000000000D-01  5.2757364188461D-01  1.3686014944208D+00
    54  5.3000000000000D-01  4.5049219297156D-01  1.4063064143349D+00
    55  5.4000000000000D-01  3.7336595614429D-01  1.4418521557276D+00
    56  5.5000000000000D-01  2.9647699260104D-01  1.4750748995280D+00
    57  5.6000000000000D-01  2.2010669258030D-01  1.5058119319136D+00
    58  5.7000000000000D-01  1.4453481262979D-01  1.5339020131355D+00
    59  5.8000000000000D-01  7.0038469792629D-02  1.5591858469012D+00
    60  5.9000000000000D-01 -3.1089072618356D-03  1.5815066579458D+00
    61  6.0000000000000D-01 -7.4638669098637D-02  1.6007108833180D+00
    62  6.1000000000000D-01 -1.4428807619729D-01  1.6166489806009D+00
    63  6.2000000000000D-01 -2.1180146609603D-01  1.6291763537863D+00
    64  6.3000000000000D-01 -2.7693145242495D-01  1.6381543948895D+00
    65  6.4000000000000D-01 -3.3944015000593D-01  1.6434516366554D+00
    66  6.5000000000000D-01 -3.9910041894636D-01  1.6449450089151D+00
    67  6.6000000000000D-01 -4.5569711943301D-01  1.6425211883636D+00
    68  6.7000000000000D-01 -5.0902836775140D-01  1.6360780287802D+00
    69  6.8000000000000D-01 -5.5890678294916D-01  1.6255260560595D+00
    70  6.9000000000000D-01 -6.0516071255151D-01  1.6107900099183D+00
    71  7.0000000000000D-01 -6.4763542484641D-01  1.5918104118425D+00
    72  7.1000000000000D-01 -6.8619425450298D-01  1.5685451367690D+00
    73  7.2000000000000D-01 -7.2071968770236D-01  1.5409709642342D+00
    74  7.3000000000000D-01 -7.5111437255317D-01  1.5090850832859D+00
    75  7.4000000000000D-01 -7.7730204035645D-01  1.4729065243894D+00
    76  7.5000000000000D-01 -7.9922832328935D-01  1.4324774909043D+00
    77  7.6000000000000D-01 -8.1686145430595D-01  1.3878645624754D+00
    78  7.7000000000000D-01 -8.3019283551247D-01  1.3391597429112D+00
    79  7.8000000000000D-01 -8.3923746196825D-01  1.2864813258115D+00
    80  7.9000000000000D-01 -8.4403418879338D-01  1.2299745523678D+00
    81  8.0000000000000D-01 -8.4464583062434D-01  1.1698120373897D+00
    82  8.1000000000000D-01 -8.4115908384394D-01  1.1061939417067D+00
    83  8.2000000000000D-01 -8.3368426360769D-01  1.0393478716221D+00
    84  8.3000000000000D-01 -8.2235484948241D-01  9.6952848905369D-01
    85  8.4000000000000D-01 -8.0732683548217D-01  8.9701681932329D-01
    86  8.5000000000000D-01 -7.8877788241109D-01  8.2211924723898D-01
    87  8.6000000000000D-01 -7.6690627267381D-01  7.4516619608312D-01
    88  8.7000000000000D-01 -7.4192967006463D-01  6.6651048833349D-01
    89  8.8000000000000D-01 -7.1408368946289D-01  5.8652539133942D-01
    90  8.9000000000000D-01 -6.8362028381111D-01  5.0560235568831D-01
    91  9.0000000000000D-01 -6.5080595819834D-01  4.2414845855996D-01
    92  9.1000000000000D-01 -6.1591982327722D-01  3.4258356890924D-01
    93  9.2000000000000D-01 -5.7925150257212D-01  2.6133725576734D-01
    94  9.3000000000000D-01 -5.4109891045028D-01  1.8084546523724D-01
    95  9.4000000000000D-01 -5.0176591959177D-01  1.0154699580732D-01
    96  9.5000000000000D-01 -4.6155993867164D-01  2.3879805350233D-02
    97  9.6000000000000D-01 -4.2078942262651D-01 -5.1722813456131D-02
    98  9.7000000000000D-01 -3.7976133928627D-01 -1.2483614961289D-01
    99  9.8000000000000D-01 -3.3877861728282D-01 -1.9504804007235D-01
   100  9.9000000000000D-01 -2.9813760097699D-01 -2.6196284177294D-01
   101  1.0000000000000D+00 -2.5812553864442D-01 -3.2520536411373D-01
   102  1.0100000000000D+00 -2.1901813034811D-01 -3.8442471580470D-01
   103  1.0200000000000D+00 -1.8107716173138D-01 -4.3929801999715D-01
   104  1.0300000000000D+00 -1.4454824943876D-01 -4.8953395218945D-01
   105  1.0400000000000D+00 -1.0965872299486D-01 -5.3487605664664D-01
   106  1.0500000000000D+00 -7.6615666690770D-02 -5.7510579906803D-01
   107  1.0600000000000D+00 -4.5604143520507D-02 -6.1004531568802D-01
   108  1.0700000000000D+00 -1.6785621303883D-02 -6.3955982218051D-01
   109  1.0800000000000D+00  9.7033811363627D-03 -6.6355964962018D-01
   110  1.0900000000000D+00  3.3752412240399D-02 -6.8200187885613D-01
   111  1.1000000000000D+00  5.5277957850373D-02 -6.9489154980386D-01
   112  1.1100000000000D+00  7.4224053177498D-02 -7.0228242662699D-01
   113  1.1200000000000D+00  9.0562630047594D-02 -7.0427730601162D-01
   114  1.1300000000000D+00  1.0429359591595D-01 -7.0102786120208D-01
   115  1.1400000000000D+00  1.1544464463183D-01 -6.9273402076712D-01
   116  1.1500000000000D+00  1.2407080189935D-01 -6.7964288644202D-01
   117  1.1600000000000D+00  1.3025371252808D-01 -6.6204720221115D-01
   118  1.1700000000000D+00  1.3410067846949D-01 -6.4028338951795D-01
   119  1.1800000000000D+00  1.3574347570830D-01 -6.1472920581757D-01
   120  1.1900000000000D+00  1.3533678959709D-01 -5.8580064501630D-01
   121  1.2000000000000D+00  1.3305703315095D-01 -5.5394985532582D-01
   122  1.2100000000000D+00  1.2909989112871D-01 -5.1966017777033D-01
   123  1.2200000000000D+00  1.2367451451888D-01 -4.8343337288458D-01
   124  1.2300000000000D+00  1.1699750519892D-01 -4.4577676607258D-01
   125  1.2400000000000D+00  1.0928833262594D-01 -4.0719397068184D-01
   126  1.2500000000000D+00  1.0076752841720D-01 -3.6818228752495D-01
   127  1.2600000000000D+00  9.1653899185659D-02 -3.2922773903288D-01
   128  1.2700000000000D+00  8.2162017052652D-02 -2.9080075347441D-01
   129  1.2800000000000D+00  7.2499696038136D-02 -2.5335177891951D-01
   130  1.2900000000000D+00  6.2865564352199D-02 -2.1730707415013D-01
   131  1.3000000000000D+00  5.3446736102180D-02 -1.8306466940838D-01
   132  1.3100000000000D+00  4.4416612732515D-02 -1.5099055481240D-01
   133  1.3200000000000D+00  3.5932841407175D-02 -1.2141514645070D-01
   134  1.3300000000000D+00  2.8135452917152D-02 -9.4630071875319D-02
   135  1.3400000000000D+00  2.1145201286863D-02 -7.0885315899359D-02
   136  1.3500000000000D+00  1.5062126625157D-02 -5.0386766570417D-02
   137  1.3600000000000D+00  9.9671966189972D-03 -3.3303847556810D-02
   138  1.3700000000000D+00  5.9071728471105D-03 -1.9719708972423D-02
   139  1.3800000000000D+00  2.9014769293930D-03 -9.6571962073719D-03
   140  1.3900000000000D+00  1.0542312125973D-03 -3.4486343501472D-03
   141  1.4000000000000D+00  2.3672230422604D-04 -6.8919967589703D-04
   142  1.4100000000000D+00  5.7697555815064D-06  4.5022746000528D-05
   143  1.4200000000000D+00  1.0303159156585D-07 -5.5126580819626D-07
   144  1.4300000000000D+00  8.4870633360245D-06 -3.8544731958608D-05
   145  1.4400000000000D+00 -5.5092970189164D-07  3.3690330420367D-06
   146  1.4500000000000D+00 -7.7631306305203D-07  4.2001802352385D-06
   147  1.4600000000000D+00 -3.2327688200621D-07  8.2354537098960D-07
   148  1.4700000000000D+00 -9.9647496685161D-08  2.5385123154025D-07
   149  1.4800000000000D+00  0.0000000000000D+00  0.0000000000000D+00
   150  1.4900000000000D+00  0.0000000000000D+00  0.0000000000000D+00
   151  1.5000000000000D+00  0.0000000000000D+00  0.0000000000000D+00
   152  1.5100000000000D+00  0.0000000000000D+00  0.0000000000000D+00
   153  1.5200000000000D+00  0.0000000000000D+00  0.0000000000000D+00
   154  1.5300000000000D+00  0.0000000000000D+00  0.0000000000000D+00
   155  1.5400000000000D+00  0.0000000000000D+00  0.0000000000000D+00
   156  1.5500000000000D+00  0.0000000000000D+00  0.0000000000000D+00
   157  1.5600000000000D+00  0.0000000000000D+00  0.0000000000000D+00
   158  1.5700000000000D+00  0.0000000000000D+00  0.0000000000000D+00
   159  1.5800000000000D+00  0.0000000000000D+00  0.0000000000000D+00
   160  1.5900000000000D+00  0.0000000000000D+00  0.0000000000000D+00
   161  1.6000000000000D+00  0.0000000000000D+00  0.0000000000000D+00
   162  1.6100000000000D+00  0.0000000000000D+00  0.0000000000000D+00
   163  1.6200000000000D+00  0.0000000000000D+00  0.0000000000000D+00
   164  1.6300000000000D+00  0.0000000000000D+00  0.0000000000000D+00
   165  1.6400000000000D+00  0.0000000000000D+00  0.0000000000000D+00
   166  1.6500000000000D+00  0.0000000000000D+00  0.0000000000000D+00
   167  1.6600000000000D+00  0.0000000000000D+00  0.0000000000000D+00
   168  1.6700000000000D+00  0.0000000000000D+00  0.0000000000000D+00
   169  1.6800000000000D+00  0.0000000000000D+00  0.0000000000000D+00
   170  1.6900000000000D+00  0.0000000000000D+00  0.0000000000000D+00
   171  1.7000000000000D+00  0.0000000000000D+00  0.0000000000000D+00
   172  1.7100000000000D+00  0.0000000000000D+00  0.0000000000000D+00
   173  1.7200000000000D+00  0.0000000000000D+00  0.0000000000000D+00
   174  1.7300000000000D+00  0.0000000000000D+00  0.0000000000000D+00
   175  1.7400000000000D+00  0.0000000000000D+00  0.0000000000000D+00
   176  1.7500000000000D+00  0.0000000000000D+00  0.0000000000000D+00
   177  1.7600000000000D+00  0.0000000000000D+00  0.0000000000000D+00
   178  1.7700000000000D+00  0.0000000000000D+00  0.0000000000000D+00
   179  1.7800000000000D+00  0.0000000000000D+00  0.0000000000000D+00
   180  1.7900000000000D+00  0.0000000000000D+00  0.0000000000000D+00
   181  1.8000000000000D+00  0.0000000000000D+00  0.0000000000000D+00
   182  1.8100000000000D+00  0.0000000000000D+00  0.0000000000000D+00
   183  1.8200000000000D+00  0.0000000000000D+00  0.0000000000000D+00
   184  1.8300000000000D+00  0.0000000000000D+00  0.0000000000000D+00
   185  1.8400000000000D+00  0.0000000000000D+00  0.0000000000000D+00
   186  1.8500000000000D+00  0.0000000000000D+00  0.0000000000000D+00
   187  1.8600000000000D+00  0.0000000000000D+00  0.0000000000000D+00
   188  1.8700000000000D+00  0.0000000000000D+00  0.0000000000000D+00
   189  1.8800000000000D+00  0.0000000000000D+00  0.0000000000000D+00
   190  1.8900000000000D+00  0.0000000000000D+00  0.0000000000000D+00
   191  1.9000000000000D+00  0.0000000000000D+00  0.0000000000000D+00
   192  1.9100000000000D+00  0.0000000000000D+00  0.0000000000000D+00
   193  1.9200000000000D+00  0.0000000000000D+00  0.0000000000000D+00
   194  1.9300000000000D+00  0.0000000000000D+00  0.0000000000000D+00
   195  1.9400000000000D+00  0.0000000000000D+00  0.0000000000000D+00
   196  1.9500000000000D+00  0.0000000000000D+00  0.0000000000000D+00
   197  1.9600000000000D+00  0.0000000000000D+00  0.0000000000000D+00
   198  1.9700000000000D+00  0.0000000000000D+00  0.0000000000000D+00
   199  1.9800000000000D+00  0.0000000000000D+00  0.0000000000000D+00
   200  1.9900000000000D+00  0.0000000000000D+00  0.0000000000000D+00
   201  2.0000000000000D+00  0.0000000000000D+00  0.0000000000000D+00
   202  2.0100000000000D+00  0.0000000000000D+00  0.0000000000000D+00
   203  2.0200000000000D+00  0.0000000000000D+00  0.0000000000000D+00
   204  2.0300000000000D+00  0.0000000000000D+00  0.0000000000000D+00
   205  2.0400000000000D+00  0.0000000000000D+00  0.0000000000000D+00
   206  2.0500000000000D+00  0.0000000000000D+00  0.0000000000000D+00
   207  2.0600000000000D+00  0.0000000000000D+00  0.0000000000000D+00
   208  2.0700000000000D+00  0.0000000000000D+00  0.0000000000000D+00
   209  2.0800000000000D+00  0.0000000000000D+00  0.0000000000000D+00
   210  2.0900000000000D+00  0.0000000000000D+00  0.0000000000000D+00
   211  2.1000000000000D+00  0.0000000000000D+00  0.0000000000000D+00
   212  2.1100000000000D+00  0.0000000000000D+00  0.0000000000000D+00
   213  2.1200000000000D+00  0.0000000000000D+00  0.0000000000000D+00
   214  2.1300000000000D+00  0.0000000000000D+00  0.0000000000000D+00
   215  2.1400000000000D+00  0.0000000000000D+00  0.0000000000000D+00
   216  2.1500000000000D+00  0.0000000000000D+00  0.0000000000000D+00
   217  2.1600000000000D+00  0.0000000000000D+00  0.0000000000000D+00
   218  2.1700000000000D+00  0.0000000000000D+00  0.0000000000000D+00
   219  2.1800000000000D+00  0.0000000000000D+00  0.0000000000000D+00
   220  2.1900000000000D+00  0.0000000000000D+00  0.0000000000000D+00
   221  2.2000000000000D+00  0.0000000000000D+00  0.0000000000000D+00
   222  2.2100000000000D+00  0.0000000000000D+00  0.0000000000000D+00
   223  2.2200000000000D+00  0.0000000000000D+00  0.0000000000000D+00
   224  2.2300000000000D+00  0.0000000000000D+00  0.0000000000000D+00
   225  2.2400000000000D+00  0.0000000000000D+00  0.0000000000000D+00
   226  2.2500000000000D+00  0.0000000000000D+00  0.0000000000000D+00
   227  2.2600000000000D+00  0.0000000000000D+00  0.0000000000000D+00
   228  2.2700000000000D+00  0.0000000000000D+00  0.0000000000000D+00
   229  2.2800000000000D+00  0.0000000000000D+00  0.0000000000000D+00
   230  2.2900000000000D+00  0.0000000000000D+00  0.0000000000000D+00
   231  2.3000000000000D+00  0.0000000000000D+00  0.0000000000000D+00
   232  2.3100000000000D+00  0.0000000000000D+00  0.0000000000000D+00
   233  2.3200000000000D+00  0.0000000000000D+00  0.0000000000000D+00
   234  2.3300000000000D+00  0.0000000000000D+00  0.0000000000000D+00
   235  2.3400000000000D+00  0.0000000000000D+00  0.0000000000000D+00
   236  2.3500000000000D+00  0.0000000000000D+00  0.0000000000000D+00
   237  2.3600000000000D+00  0.0000000000000D+00  0.0000000000000D+00
   238  2.3700000000000D+00  0.0000000000000D+00  0.0000000000000D+00
   239  2.3800000000000D+00  0.0000000000000D+00  0.0000000000000D+00
   240  2.3900000000000D+00  0.0000000000000D+00  0.0000000000000D+00
   241  2.4000000000000D+00  0.0000000000000D+00  0.0000000000000D+00
   242  2.4100000000000D+00  0.0000000000000D+00  0.0000000000000D+00
   243  2.4200000000000D+00  0.0000000000000D+00  0.0000000000000D+00
   244  2.4300000000000D+00  0.0000000000000D+00  0.0000000000000D+00
   245  2.4400000000000D+00  0.0000000000000D+00  0.0000000000000D+00
   246  2.4500000000000D+00  0.0000000000000D+00  0.0000000000000D+00
   247  2.4600000000000D+00  0.0000000000000D+00  0.0000000000000D+00
   248  2.4700000000000D+00  0.0000000000000D+00  0.0000000000000D+00
   249  2.4800000000000D+00  0.0000000000000D+00  0.0000000000000D+00
   250  2.4900000000000D+00  0.0000000000000D+00  0.0000000000000D+00
   251  2.5000000000000D+00  0.0000000000000D+00  0.0000000000000D+00
   252  2.5100000000000D+00  0.0000000000000D+00  0.0000000000000D+00
   253  2.5200000000000D+00  0.0000000000000D+00  0.0000000000000D+00
   254  2.5300000000000D+00  0.0000000000000D+00  0.0000000000000D+00
   255  2.5400000000000D+00  0.0000000000000D+00  0.0000000000000D+00
   256  2.5500000000000D+00  0.0000000000000D+00  0.0000000000000D+00
   257  2.5600000000000D+00  0.0000000000000D+00  0.0000000000000D+00
   258  2.5700000000000D+00  0.0000000000000D+00  0.0000000000000D+00
   259  2.5800000000000D+00  0.0000000000000D+00  0.0000000000000D+00
   260  2.5900000000000D+00  0.0000000000000D+00  0.0000000000000D+00
   261  2.6000000000000D+00  0.0000000000000D+00  0.0000000000000D+00
   262  2.6100000000000D+00  0.0000000000000D+00  0.0000000000000D+00
   263  2.6200000000000D+00  0.0000000000000D+00  0.0000000000000D+00
   264  2.6300000000000D+00  0.0000000000000D+00  0.0000000000000D+00
   265  2.6400000000000D+00  0.0000000000000D+00  0.0000000000000D+00
   266  2.6500000000000D+00  0.0000000000000D+00  0.0000000000000D+00
   267  2.6600000000000D+00  0.0000000000000D+00  0.0000000000000D+00
   268  2.6700000000000D+00  0.0000000000000D+00  0.0000000000000D+00
   269  2.6800000000000D+00  0.0000000000000D+00  0.0000000000000D+00
   270  2.6900000000000D+00  0.0000000000000D+00  0.0000000000000D+00
   271  2.7000000000000D+00  0.0000000000000D+00  0.0000000000000D+00
   272  2.7100000000000D+00  0.0000000000000D+00  0.0000000000000D+00
   273  2.7200000000000D+00  0.0000000000000D+00  0.0000000000000D+00
   274  2.7300000000000D+00  0.0000000000000D+00  0.0000000000000D+00
   275  2.7400000000000D+00  0.0000000000000D+00  0.0000000000000D+00
   276  2.7500000000000D+00  0.0000000000000D+00  0.0000000000000D+00
   277  2.7600000000000D+00  0.0000000000000D+00  0.0000000000000D+00
   278  2.7700000000000D+00  0.0000000000000D+00  0.0000000000000D+00
   279  2.7800000000000D+00  0.0000000000000D+00  0.0000000000000D+00
   280  2.7900000000000D+00  0.0000000000000D+00  0.0000000000000D+00
   281  2.8000000000000D+00  0.0000000000000D+00  0.0000000000000D+00
   282  2.8100000000000D+00  0.0000000000000D+00  0.0000000000000D+00
   283  2.8200000000000D+00  0.0000000000000D+00  0.0000000000000D+00
   284  2.8300000000000D+00  0.0000000000000D+00  0.0000000000000D+00
   285  2.8400000000000D+00  0.0000000000000D+00  0.0000000000000D+00
   286  2.8500000000000D+00  0.0000000000000D+00  0.0000000000000D+00
   287  2.8600000000000D+00  0.0000000000000D+00  0.0000000000000D+00
   288  2.8700000000000D+00  0.0000000000000D+00  0.0000000000000D+00
   289  2.8800000000000D+00  0.0000000000000D+00  0.0000000000000D+00
   290  2.8900000000000D+00  0.0000000000000D+00  0.0000000000000D+00
   291  2.9000000000000D+00  0.0000000000000D+00  0.0000000000000D+00
   292  2.9100000000000D+00  0.0000000000000D+00  0.0000000000000D+00
   293  2.9200000000000D+00  0.0000000000000D+00  0.0000000000000D+00
   294  2.9300000000000D+00  0.0000000000000D+00  0.0000000000000D+00
   295  2.9400000000000D+00  0.0000000000000D+00  0.0000000000000D+00
   296  2.9500000000000D+00  0.0000000000000D+00  0.0000000000000D+00
   297  2.9600000000000D+00  0.0000000000000D+00  0.0000000000000D+00
   298  2.9700000000000D+00  0.0000000000000D+00  0.0000000000000D+00
   299  2.9800000000000D+00  0.0000000000000D+00  0.0000000000000D+00
   300  2.9900000000000D+00  0.0000000000000D+00  0.0000000000000D+00
   301  3.0000000000000D+00  0.0000000000000D+00  0.0000000000000D+00
   302  3.0100000000000D+00  0.0000000000000D+00  0.0000000000000D+00
   303  3.0200000000000D+00  0.0000000000000D+00  0.0000000000000D+00
   304  3.0300000000000D+00  0.0000000000000D+00  0.0000000000000D+00
   305  3.0400000000000D+00  0.0000000000000D+00  0.0000000000000D+00
   306  3.0500000000000D+00  0.0000000000000D+00  0.0000000000000D+00
   307  3.0600000000000D+00  0.0000000000000D+00  0.0000000000000D+00
   308  3.0700000000000D+00  0.0000000000000D+00  0.0000000000000D+00
   309  3.0800000000000D+00  0.0000000000000D+00  0.0000000000000D+00
   310  3.0900000000000D+00  0.0000000000000D+00  0.0000000000000D+00
   311  3.1000000000000D+00  0.0000000000000D+00  0.0000000000000D+00
   312  3.1100000000000D+00  0.0000000000000D+00  0.0000000000000D+00
   313  3.1200000000000D+00  0.0000000000000D+00  0.0000000000000D+00
   314  3.1300000000000D+00  0.0000000000000D+00  0.0000000000000D+00
   315  3.1400000000000D+00  0.0000000000000D+00  0.0000000000000D+00
   316  3.1500000000000D+00  0.0000000000000D+00  0.0000000000000D+00
   317  3.1600000000000D+00  0.0000000000000D+00  0.0000000000000D+00
   318  3.1700000000000D+00  0.0000000000000D+00  0.0000000000000D+00
   319  3.1800000000000D+00  0.0000000000000D+00  0.0000000000000D+00
   320  3.1900000000000D+00  0.0000000000000D+00  0.0000000000000D+00
   321  3.2000000000000D+00  0.0000000000000D+00  0.0000000000000D+00
   322  3.2100000000000D+00  0.0000000000000D+00  0.0000000000000D+00
   323  3.2200000000000D+00  0.0000000000000D+00  0.0000000000000D+00
   324  3.2300000000000D+00  0.0000000000000D+00  0.0000000000000D+00
   325  3.2400000000000D+00  0.0000000000000D+00  0.0000000000000D+00
   326  3.2500000000000D+00  0.0000000000000D+00  0.0000000000000D+00
   327  3.2600000000000D+00  0.0000000000000D+00  0.0000000000000D+00
   328  3.2700000000000D+00  0.0000000000000D+00  0.0000000000000D+00
   329  3.2800000000000D+00  0.0000000000000D+00  0.0000000000000D+00
   330  3.2900000000000D+00  0.0000000000000D+00  0.0000000000000D+00
   331  3.3000000000000D+00  0.0000000000000D+00  0.0000000000000D+00
   332  3.3100000000000D+00  0.0000000000000D+00  0.0000000000000D+00
   333  3.3200000000000D+00  0.0000000000000D+00  0.0000000000000D+00
   334  3.3300000000000D+00  0.0000000000000D+00  0.0000000000000D+00
   335  3.3400000000000D+00  0.0000000000000D+00  0.0000000000000D+00
   336  3.3500000000000D+00  0.0000000000000D+00  0.0000000000000D+00
   337  3.3600000000000D+00  0.0000000000000D+00  0.0000000000000D+00
   338  3.3700000000000D+00  0.0000000000000D+00  0.0000000000000D+00
   339  3.3800000000000D+00  0.0000000000000D+00  0.0000000000000D+00
   340  3.3900000000000D+00  0.0000000000000D+00  0.0000000000000D+00
   341  3.4000000000000D+00  0.0000000000000D+00  0.0000000000000D+00
   342  3.4100000000000D+00  0.0000000000000D+00  0.0000000000000D+00
   343  3.4200000000000D+00  0.0000000000000D+00  0.0000000000000D+00
   344  3.4300000000000D+00  0.0000000000000D+00  0.0000000000000D+00
   345  3.4400000000000D+00  0.0000000000000D+00  0.0000000000000D+00
   346  3.4500000000000D+00  0.0000000000000D+00  0.0000000000000D+00
   347  3.4600000000000D+00  0.0000000000000D+00  0.0000000000000D+00
   348  3.4700000000000D+00  0.0000000000000D+00  0.0000000000000D+00
   349  3.4800000000000D+00  0.0000000000000D+00  0.0000000000000D+00
   350  3.4900000000000D+00  0.0000000000000D+00  0.0000000000000D+00
   351  3.5000000000000D+00  0.0000000000000D+00  0.0000000000000D+00
   352  3.5100000000000D+00  0.0000000000000D+00  0.0000000000000D+00
   353  3.5200000000000D+00  0.0000000000000D+00  0.0000000000000D+00
   354  3.5300000000000D+00  0.0000000000000D+00  0.0000000000000D+00
   355  3.5400000000000D+00  0.0000000000000D+00  0.0000000000000D+00
   356  3.5500000000000D+00  0.0000000000000D+00  0.0000000000000D+00
   357  3.5600000000000D+00  0.0000000000000D+00  0.0000000000000D+00
   358  3.5700000000000D+00  0.0000000000000D+00  0.0000000000000D+00
   359  3.5800000000000D+00  0.0000000000000D+00  0.0000000000000D+00
   360  3.5900000000000D+00  0.0000000000000D+00  0.0000000000000D+00
   361  3.6000000000000D+00  0.0000000000000D+00  0.0000000000000D+00
   362  3.6100000000000D+00  0.0000000000000D+00  0.0000000000000D+00
   363  3.6200000000000D+00  0.0000000000000D+00  0.0000000000000D+00
   364  3.6300000000000D+00  0.0000000000000D+00  0.0000000000000D+00
   365  3.6400000000000D+00  0.0000000000000D+00  0.0000000000000D+00
   366  3.6500000000000D+00  0.0000000000000D+00  0.0000000000000D+00
   367  3.6600000000000D+00  0.0000000000000D+00  0.0000000000000D+00
   368  3.6700000000000D+00  0.0000000000000D+00  0.0000000000000D+00
   369  3.6800000000000D+00  0.0000000000000D+00  0.0000000000000D+00
   370  3.6900000000000D+00  0.0000000000000D+00  0.0000000000000D+00
   371  3.7000000000000D+00  0.0000000000000D+00  0.0000000000000D+00
   372  3.7100000000000D+00  0.0000000000000D+00  0.0000000000000D+00
   373  3.7200000000000D+00  0.0000000000000D+00  0.0000000000000D+00
   374  3.7300000000000D+00  0.0000000000000D+00  0.0000000000000D+00
   375  3.7400000000000D+00  0.0000000000000D+00  0.0000000000000D+00
   376  3.7500000000000D+00  0.0000000000000D+00  0.0000000000000D+00
   377  3.7600000000000D+00  0.0000000000000D+00  0.0000000000000D+00
   378  3.7700000000000D+00  0.0000000000000D+00  0.0000000000000D+00
   379  3.7800000000000D+00  0.0000000000000D+00  0.0000000000000D+00
   380  3.7900000000000D+00  0.0000000000000D+00  0.0000000000000D+00
   381  3.8000000000000D+00  0.0000000000000D+00  0.0000000000000D+00
   382  3.8100000000000D+00  0.0000000000000D+00  0.0000000000000D+00
   383  3.8200000000000D+00  0.0000000000000D+00  0.0000000000000D+00
   384  3.8300000000000D+00  0.0000000000000D+00  0.0000000000000D+00
   385  3.8400000000000D+00  0.0000000000000D+00  0.0000000000000D+00
   386  3.8500000000000D+00  0.0000000000000D+00  0.0000000000000D+00
   387  3.8600000000000D+00  0.0000000000000D+00  0.0000000000000D+00
   388  3.8700000000000D+00  0.0000000000000D+00  0.0000000000000D+00
   389  3.8800000000000D+00  0.0000000000000D+00  0.0000000000000D+00
   390  3.8900000000000D+00  0.0000000000000D+00  0.0000000000000D+00
   391  3.9000000000000D+00  0.0000000000000D+00  0.0000000000000D+00
   392  3.9100000000000D+00  0.0000000000000D+00  0.0000000000000D+00
   393  3.9200000000000D+00  0.0000000000000D+00  0.0000000000000D+00
   394  3.9300000000000D+00  0.0000000000000D+00  0.0000000000000D+00
   395  3.9400000000000D+00  0.0000000000000D+00  0.0000000000000D+00
   396  3.9500000000000D+00  0.0000000000000D+00  0.0000000000000D+00
   397  3.9600000000000D+00  0.0000000000000D+00  0.0000000000000D+00
   398  3.9700000000000D+00  0.0000000000000D+00  0.0000000000000D+00
   399  3.9800000000000D+00  0.0000000000000D+00  0.0000000000000D+00
   400  3.9900000000000D+00  0.0000000000000D+00  0.0000000000000D+00
   401  4.0000000000000D+00  0.0000000000000D+00  0.0000000000000D+00
   402  4.0100000000000D+00  0.0000000000000D+00  0.0000000000000D+00
   403  4.0200000000000D+00  0.0000000000000D+00  0.0000000000000D+00
   404  4.0300000000000D+00  0.0000000000000D+00  0.0000000000000D+00
   405  4.0400000000000D+00  0.0000000000000D+00  0.0000000000000D+00
   406  4.0500000000000D+00  0.0000000000000D+00  0.0000000000000D+00
   407  4.0600000000000D+00  0.0000000000000D+00  0.0000000000000D+00
   408  4.0700000000000D+00  0.0000000000000D+00  0.0000000000000D+00
   409  4.0800000000000D+00  0.0000000000000D+00  0.0000000000000D+00
   410  4.0900000000000D+00  0.0000000000000D+00  0.0000000000000D+00
   411  4.1000000000000D+00  0.0000000000000D+00  0.0000000000000D+00
   412  4.1100000000000D+00  0.0000000000000D+00  0.0000000000000D+00
   413  4.1200000000000D+00  0.0000000000000D+00  0.0000000000000D+00
   414  4.1300000000000D+00  0.0000000000000D+00  0.0000000000000D+00
   415  4.1400000000000D+00  0.0000000000000D+00  0.0000000000000D+00
   416  4.1500000000000D+00  0.0000000000000D+00  0.0000000000000D+00
   417  4.1600000000000D+00  0.0000000000000D+00  0.0000000000000D+00
   418  4.1700000000000D+00  0.0000000000000D+00  0.0000000000000D+00
   419  4.1800000000000D+00  0.0000000000000D+00  0.0000000000000D+00
   420  4.1900000000000D+00  0.0000000000000D+00  0.0000000000000D+00
   421  4.2000000000000D+00  0.0000000000000D+00  0.0000000000000D+00
   422  4.2100000000000D+00  0.0000000000000D+00  0.0000000000000D+00