Xe    ONCVPSP-3.3.0  r_core=   2.00680   1.80252   2.20774
     54.0000      8.0000      220408    zatom,zion,pspd
     8       2   2     4   600     0    pspcod,pspxc,lmax,lloc,mmax,r2well
  5.99000000  0.00000000  0.00000000    rchrg fchrg qchrg
     2     2     2     0     0    nproj
     1     1           extension_switch
   0                         8.5735293953780D+00  1.5402241226998D+00
     1  0.0000000000000D+00  1.5525927765658D-11 -3.9842656951450D-11
     2  1.0000000000000D-02  7.8403247785774D-03  2.8235889962250D-02
     3  2.0000000000000D-02  1.5744850904537D-02  5.6331620198174D-02
     4  3.0000000000000D-02  2.3777472210463D-02  8.4147685770562D-02
     5  4.0000000000000D-02  3.2001468682548D-02  1.1154588858293D-01
     6  5.0000000000000D-02  4.0479202491533D-02  1.3838998396613D-01
     7  6.0000000000000D-02  4.9271817557677D-02  1.6454631909257D-01
     8  7.0000000000000D-02  5.8438943809618D-02  1.8988446054041D-01
     9  8.0000000000000D-02  6.8038407281425D-02  2.1427780837035D-01
    10  9.0000000000000D-02  7.8125947172834D-02  2.3760419412677D-01
    11  1.0000000000000D-01  8.8754940974473D-02  2.5974646023457D-01
    12  1.1000000000000D-01  9.9976138733075D-02  2.8059301833182D-01
    13  1.2000000000000D-01  1.1183740750107D-01  3.0003838415605D-01
    14  1.3000000000000D-01  1.2438348698083D-01  3.1798368668956D-01
    15  1.4000000000000D-01  1.3765575733610D-01  3.3433714936492D-01
    16  1.5000000000000D-01  1.5169202010205D-01  3.4901454123647D-01
    17  1.6000000000000D-01  1.6652629308073D-01  3.6193959613660D-01
    18  1.7000000000000D-01  1.8218862006110D-01  3.7304439795646D-01
    19  1.8000000000000D-01  1.9870489615168D-01  3.8226973031941D-01
    20  1.9000000000000D-01  2.1609670946007D-01  3.8956538905122D-01
    21  2.0000000000000D-01  2.3438119979655D-01  3.9489045599396D-01
    22  2.1000000000000D-01  2.5357093501953D-01  3.9821353285946D-01
    23  2.2000000000000D-01  2.7367380557826D-01  3.9951293397369D-01
    24  2.3000000000000D-01  2.9469293774367D-01  3.9877683692381D-01
    25  2.4000000000000D-01  3.1662662595119D-01  3.9600339028558D-01
    26  2.5000000000000D-01  3.3946828461057D-01  3.9120077777883D-01
    27  2.6000000000000D-01  3.6320641966682D-01  3.8438723837297D-01
    28  2.7000000000000D-01  3.8782462012371D-01  3.7559104204161D-01
    29  2.8000000000000D-01  4.1330156966773D-01  3.6485042104592D-01
    30  2.9000000000000D-01  4.3961107845475D-01  3.5221345680814D-01
    31  3.0000000000000D-01  4.6672213504601D-01  3.3773792262060D-01
    32  3.1000000000000D-01  4.9459897840267D-01  3.2149108261999D-01
    33  3.2000000000000D-01  5.2320118977141D-01  3.0354944764072D-01
    34  3.3000000000000D-01  5.5248380421565D-01  2.8399848874568D-01
    35  3.4000000000000D-01  5.8239744146974D-01  2.6293230941448D-01
    36  3.5000000000000D-01  6.1288845571633D-01  2.4045327755019D-01
    37  3.6000000000000D-01  6.4389910381100D-01  2.1667161864274D-01
    38  3.7000000000000D-01  6.7536773140237D-01  1.9170497160118D-01
    39  3.8000000000000D-01  7.0722897632226D-01  1.6567790893685D-01
    40  3.9000000000000D-01  7.3941398854739D-01  1.3872142314341D-01
    41  4.0000000000000D-01  7.7185066596383D-01  1.1097238127918D-01
    42  4.1000000000000D-01  8.0446390509643D-01  8.2572949908370D-02
    43  4.2000000000000D-01  8.3717586589977D-01  5.3669992703419D-02
    44  4.3000000000000D-01  8.6990624964364D-01  2.4414443146535D-02
    45  4.4000000000000D-01  9.0257258886590D-01 -5.0393451027821D-03
    46  4.5000000000000D-01  9.3509054830900D-01 -3.4534267489563D-02
    47  4.6000000000000D-01  9.6737423570281D-01 -6.3911154701028D-02
    48  4.7000000000000D-01  9.9933652120796D-01 -9.3009472769145D-02
    49  4.8000000000000D-01  1.0308893642881D+00 -1.2166803416061D-01
    50  4.9000000000000D-01  1.0619441467399D+00 -1.4972571680248D-01
    51  5.0000000000000D-01  1.0924120105730D+00 -1.7702218792940D-01
    52  5.1000000000000D-01  1.1222041994026D+00 -2.0339862958947D-01
    53  5.2000000000000D-01  1.1512324019899D+00 -2.2869846260968D-01
    54  5.3000000000000D-01  1.1794090965480D+00 -2.5276806579980D-01
    55  5.4000000000000D-01  1.2066478944134D+00 -2.7545748716554D-01
    56  5.5000000000000D-01  1.2328638816770D+00 -2.9662114390781D-01
    57  5.6000000000000D-01  1.2579739573636D+00 -3.1611850800554D-01
    58  5.7000000000000D-01  1.2818971667522D+00 -3.3381477421512D-01
    59  5.8000000000000D-01  1.3045550284392D+00 -3.4958150736889D-01
    60  5.9000000000000D-01  1.3258718537610D+00 -3.6329726592050D-01
    61  6.0000000000000D-01  1.3457750572126D+00 -3.7484819876385D-01
    62  6.1000000000000D-01  1.3641954565292D+00 -3.8412861244626D-01
    63  6.2000000000000D-01  1.3810675611271D+00 -3.9104150600492D-01
    64  6.3000000000000D-01  1.3963298476442D+00 -3.9549907077767D-01
    65  6.4000000000000D-01  1.4099250213606D+00 -3.9742315267489D-01
    66  6.5000000000000D-01  1.4218002623373D+00 -3.9674567454883D-01
    67  6.6000000000000D-01  1.4319074551614D+00 -3.9340901645811D-01
    68  6.7000000000000D-01  1.4402034012545D+00 -3.8736635179904D-01
    69  6.8000000000000D-01  1.4466500127646D+00 -3.7858193746130D-01
    70  6.9000000000000D-01  1.4512144871369D+00 -3.6703135636157D-01
    71  7.0000000000000D-01  1.4538694615354D+00 -3.5270171091424D-01
    72  7.1000000000000D-01  1.4545931463710D+00 -3.3559176621480D-01
    73  7.2000000000000D-01  1.4533694372750D+00 -3.1571204193414D-01
    74  7.3000000000000D-01  1.4501880049500D+00 -2.9308485215317D-01
    75  7.4000000000000D-01  1.4450443624228D+00 -2.6774429260400D-01
    76  7.5000000000000D-01  1.4379399093195D+00 -2.3973617502557D-01
    77  7.6000000000000D-01  1.4288819528825D+00 -2.0911790858862D-01
    78  7.7000000000000D-01  1.4178837055515D+00 -1.7595832859275D-01
    79  7.8000000000000D-01  1.4049642590327D+00 -1.4033747288948D-01
    80  7.9000000000000D-01  1.3901485348830D+00 -1.0234630673547D-01
    81  8.0000000000000D-01  1.3734672117448D+00 -6.2086397030829D-02
    82  8.1000000000000D-01  1.3549566294677D+00 -1.9669537144428D-02
    83  8.2000000000000D-01  1.3346586704608D+00  2.4782676226729D-02
    84  8.3000000000000D-01  1.3126206187227D+00  7.1139312477655D-02
    85  8.4000000000000D-01  1.2888949970986D+00  1.1926062087477D-01
    86  8.5000000000000D-01  1.2635393834147D+00  1.6899858654768D-01
    87  8.6000000000000D-01  1.2366162062382D+00  2.2019752632844D-01
    88  8.7000000000000D-01  1.2081925211067D+00  2.7269472186513D-01
    89  8.8000000000000D-01  1.1783397681641D+00  3.2632108723897D-01
    90  8.9000000000000D-01  1.1471335122246D+00  3.8090186812882D-01
    91  9.0000000000000D-01  1.1146531663748D+00  4.3625736939455D-01
    92  9.1000000000000D-01  1.0809817002986D+00  4.9220370779265D-01
    93  9.2000000000000D-01  1.0462053345861D+00  5.4855358639427D-01
    94  9.3000000000000D-01  1.0104132223528D+00  6.0511708714904D-01
    95  9.4000000000000D-01  9.7369711956060D-01  6.6170247792789D-01
    96  9.5000000000000D-01  9.3615104548313D-01  7.1811703028531D-01
    97  9.6000000000000D-01  8.9787093481024D-01  7.7416784410789D-01
    98  9.7000000000000D-01  8.5895428292536D-01  8.2966267525989D-01
    99  9.8000000000000D-01  8.1949978592457D-01  8.8441076230131D-01
   100  9.9000000000000D-01  7.7960697697205D-01  9.3822364833748D-01
   101  1.0000000000000D+00  7.3937586060554D-01  9.9091599406276D-01
   102  1.0100000000000D+00  6.9890654661596D-01  1.0423063780849D+00
   103  1.0200000000000D+00  6.5829888512816D-01  1.0922180806613D+00
   104  1.0300000000000D+00  6.1765210450413D-01  1.1404798470415D+00
   105  1.0400000000000D+00  5.7706445367672D-01  1.1869266266960D+00
   106  1.0500000000000D+00  5.3663285049951D-01  1.2314002848171D+00
   107  1.0600000000000D+00  4.9645253766994D-01  1.2737502825959D+00
   108  1.0700000000000D+00  4.5661674774524D-01  1.3138343229253D+00
   109  1.0800000000000D+00  4.1721637872408D-01  1.3515189583401D+00
   110  1.0900000000000D+00  3.7833968161614D-01  1.3866801581810D+00
   111  1.1000000000000D+00  3.4007196135683D-01  1.4192038321740D+00
   112  1.1100000000000D+00  3.0249529236667D-01  1.4489863078030D+00
   113  1.1200000000000D+00  2.6568824997221D-01  1.4759347591037D+00
   114  1.1300000000000D+00  2.2972565882948D-01  1.4999675847352D+00
   115  1.1400000000000D+00  1.9467835939991D-01  1.5210147334476D+00
   116  1.1500000000000D+00  1.6061299344782D-01  1.5390179753020D+00
   117  1.1600000000000D+00  1.2759180942568D-01  1.5539311172865D+00
   118  1.1700000000000D+00  9.5672488510713D-02  1.5657201622605D+00
   119  1.1800000000000D+00  6.4907991943649D-02  1.5743634104653D+00
   120  1.1900000000000D+00  3.5346430246879D-02  1.5798515030417D+00
   121  1.2000000000000D+00  7.0309547471123D-03  1.5821874074039D+00
   122  1.2100000000000D+00 -2.0000328269689D-02  1.5813863445730D+00
   123  1.2200000000000D+00 -4.5714420553625D-02  1.5774756588621D+00
   124  1.2300000000000D+00 -7.0083471919234D-02  1.5704946305671D+00
   125  1.2400000000000D+00 -9.3084797347796D-02  1.5604942327201D+00
   126  1.2500000000000D+00 -1.1470087130132D-01  1.5475368332019D+00
   127  1.2600000000000D+00 -1.3491929944623D-01  1.5316958436654D+00
   128  1.2700000000000D+00 -1.5373276819410D-01  1.5130553172385D+00
   129  1.2800000000000D+00 -1.7113897253409D-01  1.4917094971277D+00
   130  1.2900000000000D+00 -1.8714052266874D-01  1.4677623183422D+00
   131  1.3000000000000D+00 -2.0174483020360D-01  1.4413268653209D+00
   132  1.3100000000000D+00 -2.1496397466194D-01  1.4125247882779D+00
   133  1.3200000000000D+00 -2.2681455114175D-01  1.3814856812026D+00
   134  1.3300000000000D+00 -2.3731750016148D-01  1.3483464249555D+00
   135  1.3400000000000D+00 -2.4649792070760D-01  1.3132504988097D+00
   136  1.3500000000000D+00 -2.5438486758892D-01  1.2763472640097D+00
   137  1.3600000000000D+00 -2.6101113436830D-01  1.2377912232281D+00
   138  1.3700000000000D+00 -2.6641302307052D-01  1.1977412596623D+00
   139  1.3800000000000D+00 -2.7063010202278D-01  1.1563598598276D+00
   140  1.3900000000000D+00 -2.7370495322595D-01  1.1138123241084D+00
   141  1.4000000000000D+00 -2.7568291060976D-01  1.0702659691267D+00
   142  1.4100000000000D+00 -2.7661179069624D-01  1.0258893261594D+00
   143  1.4200000000000D+00 -2.7654161709481D-01  9.8085133968893D-01
   144  1.4300000000000D+00 -2.7552434035587D-01  9.3532057035208D-01
   145  1.4400000000000D+00 -2.7361355466247D-01  8.8946440623208D-01
   146  1.4500000000000D+00 -2.7086421289035D-01  8.4344828680354D-01
   147  1.4600000000000D+00 -2.6733234150589D-01  7.9743494326763D-01
   148  1.4700000000000D+00 -2.6307475679161D-01  7.5158365931422D-01
   149  1.4800000000000D+00 -2.5814878388065D-01  7.0604955610851D-01
   150  1.4900000000000D+00 -2.5261197993288D-01  6.6098290482168D-01
   151  1.5000000000000D+00 -2.4652186299849D-01  6.1652847075193D-01
   152  1.5100000000000D+00 -2.3993564765912D-01  5.7282489143850D-01
   153  1.5200000000000D+00 -2.3290998901324D-01  5.3000409286498D-01
   154  1.5300000000000D+00 -2.2550073593203D-01  4.8819074559636D-01
   155  1.5400000000000D+00 -2.1776269495591D-01  4.4750176425012D-01
   156  1.5500000000000D+00 -2.0974940577716D-01  4.0804585222822D-01
   157  1.5600000000000D+00 -2.0151292929113D-01  3.6992309383140D-01
   158  1.5700000000000D+00 -1.9310364927198D-01  3.3322459603706D-01
   159  1.5800000000000D+00 -1.8457008816764D-01  2.9803218053478D-01
   160  1.5900000000000D+00 -1.7595873822204D-01  2.6441812875203D-01
   161  1.6000000000000D+00 -1.6731390787539D-01  2.3244497882802D-01
   162  1.6100000000000D+00 -1.5867758480456D-01  2.0216537769558D-01
   163  1.6200000000000D+00 -1.5008931502294D-01  1.7362198568443D-01
   164  1.6300000000000D+00 -1.4158609946207D-01  1.4684743693542D-01
   165  1.6400000000000D+00 -1.3320230708481D-01  1.2186435200724D-01
   166  1.6500000000000D+00 -1.2496960578327D-01  9.8685405422125D-02
   167  1.6600000000000D+00 -1.1691690994429D-01  7.7313444108409D-02
   168  1.6700000000000D+00 -1.0907034565759D-01  5.7741658639244D-02
   169  1.6800000000000D+00 -1.0145323231042D-01  3.9953802890102D-02
   170  1.6900000000000D+00 -9.4086081291863D-02  2.3924463255667D-02
   171  1.7000000000000D+00 -8.6986610388581D-02  9.6193726601211D-03
   172  1.7100000000000D+00 -8.0169774392734D-02 -3.0042301129998D-03
   173  1.7200000000000D+00 -7.3647810317389D-02 -1.3997200972924D-02
   174  1.7300000000000D+00 -6.7430297589870D-02 -2.3418050904803D-02
   175  1.7400000000000D+00 -6.1524231309434D-02 -3.1332472190795D-02
   176  1.7500000000000D+00 -5.5934108644452D-02 -3.7812831420393D-02
   177  1.7600000000000D+00 -5.0662030823011D-02 -4.2937620439499D-02
   178  1.7700000000000D+00 -4.5707798048666D-02 -4.6790941320546D-02
   179  1.7800000000000D+00 -4.1069068748309D-02 -4.9461792072097D-02
   180  1.7900000000000D+00 -3.6741452783996D-02 -5.1043571976110D-02
   181  1.8000000000000D+00 -3.2718577859195D-02 -5.1633703076649D-02
   182  1.8100000000000D+00 -2.8992403676646D-02 -5.1332426314302D-02
   183  1.8200000000000D+00 -2.5553499209241D-02 -5.0241721328466D-02
   184  1.8300000000000D+00 -2.2391329255641D-02 -4.8464264974473D-02
   185  1.8400000000000D+00 -1.9494610960397D-02 -4.6102174847006D-02
   186  1.8500000000000D+00 -1.6851537471332D-02 -4.3256206788119D-02
   187  1.8600000000000D+00 -1.4449907496817D-02 -4.0025286711454D-02
   188  1.8700000000000D+00 -1.2277297400342D-02 -3.6505905949764D-02
   189  1.8800000000000D+00 -1.0321259017498D-02 -3.2791422592774D-02
   190  1.8900000000000D+00 -8.5694761995037D-03 -2.8971514351297D-02
   191  1.9000000000000D+00 -7.0099295732370D-03 -2.5131604301782D-02
   192  1.9100000000000D+00 -5.6310482141969D-03 -2.1352334643421D-02
   193  1.9200000000000D+00 -4.4218515226706D-03 -1.7709075348365D-02
   194  1.9300000000000D+00 -3.3720816417457D-03 -1.4271467160989D-02
   195  1.9400000000000D+00 -2.4724455984445D-03 -1.1104758849434D-02
   196  1.9500000000000D+00 -1.7143811134470D-03 -8.2645235627572D-03
   197  1.9600000000000D+00 -1.0900212985765D-03 -5.7930827298781D-03
   198  1.9700000000000D+00 -5.9351195487710D-04 -3.7224851550835D-03
   199  1.9800000000000D+00 -2.2008859769854D-04 -2.1430277431072D-03
   200  1.9900000000000D+00  3.7990703452512D-05 -1.1135856558121D-03
   201  2.0000000000000D+00  1.7573675935106D-04 -5.3947524267094D-04
   202  2.0100000000000D+00  1.8894705220981D-04 -2.4439530130124D-04
   203  2.0200000000000D+00  1.0546321231599D-04 -8.1055602796167D-05
   204  2.0300000000000D+00  7.1637509019149D-06 -3.9802222492416D-06
   205  2.0400000000000D+00 -2.6123070537539D-05  1.1917616126657D-05
   206  2.0500000000000D+00 -1.3986774246159D-05  5.1329810093051D-06
   207  2.0600000000000D+00  3.7424895039499D-06 -2.5064630631956D-06
   208  2.0700000000000D+00  5.2593405526087D-06 -3.2832256702684D-06
   209  2.0800000000000D+00 -7.3795607351328D-09  1.1927101284450D-08
   210  2.0900000000000D+00 -5.5650330261669D-07  8.9943988452327D-07
   211  2.1000000000000D+00 -3.1007128775665D-07  5.0114793918108D-07
   212  2.1100000000000D+00  0.0000000000000D+00  0.0000000000000D+00
   213  2.1200000000000D+00  0.0000000000000D+00  0.0000000000000D+00
   214  2.1300000000000D+00  0.0000000000000D+00  0.0000000000000D+00
   215  2.1400000000000D+00  0.0000000000000D+00  0.0000000000000D+00
   216  2.1500000000000D+00  0.0000000000000D+00  0.0000000000000D+00
   217  2.1600000000000D+00  0.0000000000000D+00  0.0000000000000D+00
   218  2.1700000000000D+00  0.0000000000000D+00  0.0000000000000D+00
   219  2.1800000000000D+00  0.0000000000000D+00  0.0000000000000D+00
   220  2.1900000000000D+00  0.0000000000000D+00  0.0000000000000D+00
   221  2.2000000000000D+00  0.0000000000000D+00  0.0000000000000D+00
   222  2.2100000000000D+00  0.0000000000000D+00  0.0000000000000D+00
   223  2.2200000000000D+00  0.0000000000000D+00  0.0000000000000D+00
   224  2.2300000000000D+00  0.0000000000000D+00  0.0000000000000D+00
   225  2.2400000000000D+00  0.0000000000000D+00  0.0000000000000D+00
   226  2.2500000000000D+00  0.0000000000000D+00  0.0000000000000D+00
   227  2.2600000000000D+00  0.0000000000000D+00  0.0000000000000D+00
   228  2.2700000000000D+00  0.0000000000000D+00  0.0000000000000D+00
   229  2.2800000000000D+00  0.0000000000000D+00  0.0000000000000D+00
   230  2.2900000000000D+00  0.0000000000000D+00  0.0000000000000D+00
   231  2.3000000000000D+00  0.0000000000000D+00  0.0000000000000D+00
   232  2.3100000000000D+00  0.0000000000000D+00  0.0000000000000D+00
   233  2.3200000000000D+00  0.0000000000000D+00  0.0000000000000D+00
   234  2.3300000000000D+00  0.0000000000000D+00  0.0000000000000D+00
   235  2.3400000000000D+00  0.0000000000000D+00  0.0000000000000D+00
   236  2.3500000000000D+00  0.0000000000000D+00  0.0000000000000D+00
   237  2.3600000000000D+00  0.0000000000000D+00  0.0000000000000D+00
   238  2.3700000000000D+00  0.0000000000000D+00  0.0000000000000D+00
   239  2.3800000000000D+00  0.0000000000000D+00  0.0000000000000D+00
   240  2.3900000000000D+00  0.0000000000000D+00  0.0000000000000D+00
   241  2.4000000000000D+00  0.0000000000000D+00  0.0000000000000D+00
   242  2.4100000000000D+00  0.0000000000000D+00  0.0000000000000D+00
   243  2.4200000000000D+00  0.0000000000000D+00  0.0000000000000D+00
   244  2.4300000000000D+00  0.0000000000000D+00  0.0000000000000D+00
   245  2.4400000000000D+00  0.0000000000000D+00  0.0000000000000D+00
   246  2.4500000000000D+00  0.0000000000000D+00  0.0000000000000D+00
   247  2.4600000000000D+00  0.0000000000000D+00  0.0000000000000D+00
   248  2.4700000000000D+00  0.0000000000000D+00  0.0000000000000D+00
   249  2.4800000000000D+00  0.0000000000000D+00  0.0000000000000D+00
   250  2.4900000000000D+00  0.0000000000000D+00  0.0000000000000D+00
   251  2.5000000000000D+00  0.0000000000000D+00  0.0000000000000D+00
   252  2.5100000000000D+00  0.0000000000000D+00  0.0000000000000D+00
   253  2.5200000000000D+00  0.0000000000000D+00  0.0000000000000D+00
   254  2.5300000000000D+00  0.0000000000000D+00  0.0000000000000D+00
   255  2.5400000000000D+00  0.0000000000000D+00  0.0000000000000D+00
   256  2.5500000000000D+00  0.0000000000000D+00  0.0000000000000D+00
   257  2.5600000000000D+00  0.0000000000000D+00  0.0000000000000D+00
   258  2.5700000000000D+00  0.0000000000000D+00  0.0000000000000D+00
   259  2.5800000000000D+00  0.0000000000000D+00  0.0000000000000D+00
   260  2.5900000000000D+00  0.0000000000000D+00  0.0000000000000D+00
   261  2.6000000000000D+00  0.0000000000000D+00  0.0000000000000D+00
   262  2.6100000000000D+00  0.0000000000000D+00  0.0000000000000D+00
   263  2.6200000000000D+00  0.0000000000000D+00  0.0000000000000D+00
   264  2.6300000000000D+00  0.0000000000000D+00  0.0000000000000D+00
   265  2.6400000000000D+00  0.0000000000000D+00  0.0000000000000D+00
   266  2.6500000000000D+00  0.0000000000000D+00  0.0000000000000D+00
   267  2.6600000000000D+00  0.0000000000000D+00  0.0000000000000D+00
   268  2.6700000000000D+00  0.0000000000000D+00  0.0000000000000D+00
   269  2.6800000000000D+00  0.0000000000000D+00  0.0000000000000D+00
   270  2.6900000000000D+00  0.0000000000000D+00  0.0000000000000D+00
   271  2.7000000000000D+00  0.0000000000000D+00  0.0000000000000D+00
   272  2.7100000000000D+00  0.0000000000000D+00  0.0000000000000D+00
   273  2.7200000000000D+00  0.0000000000000D+00  0.0000000000000D+00
   274  2.7300000000000D+00  0.0000000000000D+00  0.0000000000000D+00
   275  2.7400000000000D+00  0.0000000000000D+00  0.0000000000000D+00
   276  2.7500000000000D+00  0.0000000000000D+00  0.0000000000000D+00
   277  2.7600000000000D+00  0.0000000000000D+00  0.0000000000000D+00
   278  2.7700000000000D+00  0.0000000000000D+00  0.0000000000000D+00
   279  2.7800000000000D+00  0.0000000000000D+00  0.0000000000000D+00
   280  2.7900000000000D+00  0.0000000000000D+00  0.0000000000000D+00
   281  2.8000000000000D+00  0.0000000000000D+00  0.0000000000000D+00
   282  2.8100000000000D+00  0.0000000000000D+00  0.0000000000000D+00
   283  2.8200000000000D+00  0.0000000000000D+00  0.0000000000000D+00
   284  2.8300000000000D+00  0.0000000000000D+00  0.0000000000000D+00
   285  2.8400000000000D+00  0.0000000000000D+00  0.0000000000000D+00
   286  2.8500000000000D+00  0.0000000000000D+00  0.0000000000000D+00
   287  2.8600000000000D+00  0.0000000000000D+00  0.0000000000000D+00
   288  2.8700000000000D+00  0.0000000000000D+00  0.0000000000000D+00
   289  2.8800000000000D+00  0.0000000000000D+00  0.0000000000000D+00
   290  2.8900000000000D+00  0.0000000000000D+00  0.0000000000000D+00
   291  2.9000000000000D+00  0.0000000000000D+00  0.0000000000000D+00
   292  2.9100000000000D+00  0.0000000000000D+00  0.0000000000000D+00
   293  2.9200000000000D+00  0.0000000000000D+00  0.0000000000000D+00
   294  2.9300000000000D+00  0.0000000000000D+00  0.0000000000000D+00
   295  2.9400000000000D+00  0.0000000000000D+00  0.0000000000000D+00
   296  2.9500000000000D+00  0.0000000000000D+00  0.0000000000000D+00
   297  2.9600000000000D+00  0.0000000000000D+00  0.0000000000000D+00
   298  2.9700000000000D+00  0.0000000000000D+00  0.0000000000000D+00
   299  2.9800000000000D+00  0.0000000000000D+00  0.0000000000000D+00
   300  2.9900000000000D+00  0.0000000000000D+00  0.0000000000000D+00
   301  3.0000000000000D+00  0.0000000000000D+00  0.0000000000000D+00
   302  3.0100000000000D+00  0.0000000000000D+00  0.0000000000000D+00
   303  3.0200000000000D+00  0.0000000000000D+00  0.0000000000000D+00
   304  3.0300000000000D+00  0.0000000000000D+00  0.0000000000000D+00
   305  3.0400000000000D+00  0.0000000000000D+00  0.0000000000000D+00
   306  3.0500000000000D+00  0.0000000000000D+00  0.0000000000000D+00
   307  3.0600000000000D+00  0.0000000000000D+00  0.0000000000000D+00
   308  3.0700000000000D+00  0.0000000000000D+00  0.0000000000000D+00
   309  3.0800000000000D+00  0.0000000000000D+00  0.0000000000000D+00
   310  3.0900000000000D+00  0.0000000000000D+00  0.0000000000000D+00
   311  3.1000000000000D+00  0.0000000000000D+00  0.0000000000000D+00
   312  3.1100000000000D+00  0.0000000000000D+00  0.0000000000000D+00
   313  3.1200000000000D+00  0.0000000000000D+00  0.0000000000000D+00
   314  3.1300000000000D+00  0.0000000000000D+00  0.0000000000000D+00
   315  3.1400000000000D+00  0.0000000000000D+00  0.0000000000000D+00
   316  3.1500000000000D+00  0.0000000000000D+00  0.0000000000000D+00
   317  3.1600000000000D+00  0.0000000000000D+00  0.0000000000000D+00
   318  3.1700000000000D+00  0.0000000000000D+00  0.0000000000000D+00
   319  3.1800000000000D+00  0.0000000000000D+00  0.0000000000000D+00
   320  3.1900000000000D+00  0.0000000000000D+00  0.0000000000000D+00
   321  3.2000000000000D+00  0.0000000000000D+00  0.0000000000000D+00
   322  3.2100000000000D+00  0.0000000000000D+00  0.0000000000000D+00
   323  3.2200000000000D+00  0.0000000000000D+00  0.0000000000000D+00
   324  3.2300000000000D+00  0.0000000000000D+00  0.0000000000000D+00
   325  3.2400000000000D+00  0.0000000000000D+00  0.0000000000000D+00
   326  3.2500000000000D+00  0.0000000000000D+00  0.0000000000000D+00
   327  3.2600000000000D+00  0.0000000000000D+00  0.0000000000000D+00
   328  3.2700000000000D+00  0.0000000000000D+00  0.0000000000000D+00
   329  3.2800000000000D+00  0.0000000000000D+00  0.0000000000000D+00
   330  3.2900000000000D+00  0.0000000000000D+00  0.0000000000000D+00
   331  3.3000000000000D+00  0.0000000000000D+00  0.0000000000000D+00
   332  3.3100000000000D+00  0.0000000000000D+00  0.0000000000000D+00
   333  3.3200000000000D+00  0.0000000000000D+00  0.0000000000000D+00
   334  3.3300000000000D+00  0.0000000000000D+00  0.0000000000000D+00
   335  3.3400000000000D+00  0.0000000000000D+00  0.0000000000000D+00
   336  3.3500000000000D+00  0.0000000000000D+00  0.0000000000000D+00
   337  3.3600000000000D+00  0.0000000000000D+00  0.0000000000000D+00
   338  3.3700000000000D+00  0.0000000000000D+00  0.0000000000000D+00
   339  3.3800000000000D+00  0.0000000000000D+00  0.0000000000000D+00
   340  3.3900000000000D+00  0.0000000000000D+00  0.0000000000000D+00
   341  3.4000000000000D+00  0.0000000000000D+00  0.0000000000000D+00
   342  3.4100000000000D+00  0.0000000000000D+00  0.0000000000000D+00
   343  3.4200000000000D+00  0.0000000000000D+00  0.0000000000000D+00
   344  3.4300000000000D+00  0.0000000000000D+00  0.0000000000000D+00
   345  3.4400000000000D+00  0.0000000000000D+00  0.0000000000000D+00
   346  3.4500000000000D+00  0.0000000000000D+00  0.0000000000000D+00
   347  3.4600000000000D+00  0.0000000000000D+00  0.0000000000000D+00
   348  3.4700000000000D+00  0.0000000000000D+00  0.0000000000000D+00
   349  3.4800000000000D+00  0.0000000000000D+00  0.0000000000000D+00
   350  3.4900000000000D+00  0.0000000000000D+00  0.0000000000000D+00
   351  3.5000000000000D+00  0.0000000000000D+00  0.0000000000000D+00
   352  3.5100000000000D+00  0.0000000000000D+00  0.0000000000000D+00
   353  3.5200000000000D+00  0.0000000000000D+00  0.0000000000000D+00
   354  3.5300000000000D+00  0.0000000000000D+00  0.0000000000000D+00
   355  3.5400000000000D+00  0.0000000000000D+00  0.0000000000000D+00
   356  3.5500000000000D+00  0.0000000000000D+00  0.0000000000000D+00
   357  3.5600000000000D+00  0.0000000000000D+00  0.0000000000000D+00
   358  3.5700000000000D+00  0.0000000000000D+00  0.0000000000000D+00
   359  3.5800000000000D+00  0.0000000000000D+00  0.0000000000000D+00
   360  3.5900000000000D+00  0.0000000000000D+00  0.0000000000000D+00
   361  3.6000000000000D+00  0.0000000000000D+00  0.0000000000000D+00
   362  3.6100000000000D+00  0.0000000000000D+00  0.0000000000000D+00
   363  3.6200000000000D+00  0.0000000000000D+00  0.0000000000000D+00
   364  3.6300000000000D+00  0.0000000000000D+00  0.0000000000000D+00
   365  3.6400000000000D+00  0.0000000000000D+00  0.0000000000000D+00
   366  3.6500000000000D+00  0.0000000000000D+00  0.0000000000000D+00
   367  3.6600000000000D+00  0.0000000000000D+00  0.0000000000000D+00
   368  3.6700000000000D+00  0.0000000000000D+00  0.0000000000000D+00
   369  3.6800000000000D+00  0.0000000000000D+00  0.0000000000000D+00
   370  3.6900000000000D+00  0.0000000000000D+00  0.0000000000000D+00
   371  3.7000000000000D+00  0.0000000000000D+00  0.0000000000000D+00
   372  3.7100000000000D+00  0.0000000000000D+00  0.0000000000000D+00
   373  3.7200000000000D+00  0.0000000000000D+00  0.0000000000000D+00
   374  3.7300000000000D+00  0.0000000000000D+00  0.0000000000000D+00
   375  3.7400000000000D+00  0.0000000000000D+00  0.0000000000000D+00
   376  3.7500000000000D+00  0.0000000000000D+00  0.0000000000000D+00
   377  3.7600000000000D+00  0.0000000000000D+00  0.0000000000000D+00
   378  3.7700000000000D+00  0.0000000000000D+00  0.0000000000000D+00
   379  3.7800000000000D+00  0.0000000000000D+00  0.0000000000000D+00
   380  3.7900000000000D+00  0.0000000000000D+00  0.0000000000000D+00
   381  3.8000000000000D+00  0.0000000000000D+00  0.0000000000000D+00
   382  3.8100000000000D+00  0.0000000000000D+00  0.0000000000000D+00
   383  3.8200000000000D+00  0.0000000000000D+00  0.0000000000000D+00
   384  3.8300000000000D+00  0.0000000000000D+00  0.0000000000000D+00
   385  3.8400000000000D+00  0.0000000000000D+00  0.0000000000000D+00
   386  3.8500000000000D+00  0.0000000000000D+00  0.0000000000000D+00
   387  3.8600000000000D+00  0.0000000000000D+00  0.0000000000000D+00
   388  3.8700000000000D+00  0.0000000000000D+00  0.0000000000000D+00
   389  3.8800000000000D+00  0.0000000000000D+00  0.0000000000000D+00
   390  3.8900000000000D+00  0.0000000000000D+00  0.0000000000000D+00
   391  3.9000000000000D+00  0.0000000000000D+00  0.0000000000000D+00
   392  3.9100000000000D+00  0.0000000000000D+00  0.0000000000000D+00
   393  3.9200000000000D+00  0.0000000000000D+00  0.0000000000000D+00
   394  3.9300000000000D+00  0.0000000000000D+00  0.0000000000000D+00
   395  3.9400000000000D+00  0.0000000000000D+00  0.0000000000000D+00
   396  3.9500000000000D+00  0.0000000000000D+00  0.0000000000000D+00
   397  3.9600000000000D+00  0.0000000000000D+00  0.0000000000000D+00
   398  3.9700000000000D+00  0.0000000000000D+00  0.0000000000000D+00
   399  3.9800000000000D+00  0.0000000000000D+00  0.0000000000000D+00
   400  3.9900000000000D+00  0.0000000000000D+00  0.0000000000000D+00
   401  4.0000000000000D+00  0.0000000000000D+00  0.0000000000000D+00
   402  4.0100000000000D+00  0.0000000000000D+00  0.0000000000000D+00
   403  4.0200000000000D+00  0.0000000000000D+00  0.0000000000000D+00
   404  4.0300000000000D+00  0.0000000000000D+00  0.0000000000000D+00
   405  4.0400000000000D+00  0.0000000000000D+00  0.0000000000000D+00
   406  4.0500000000000D+00  0.0000000000000D+00  0.0000000000000D+00
   407  4.0600000000000D+00  0.0000000000000D+00  0.0000000000000D+00
   408  4.0700000000000D+00  0.0000000000000D+00  0.0000000000000D+00
   409  4.0800000000000D+00  0.0000000000000D+00  0.0000000000000D+00
   410  4.0900000000000D+00  0.0000000000000D+00  0.0000000000000D+00
   411  4.1000000000000D+00  0.0000000000000D+00  0.0000000000000D+00
   412  4.1100000000000D+00  0.0000000000000D+00  0.0000000000000D+00
   413  4.1200000000000D+00  0.0000000000000D+00  0.0000000000000D+00
   414  4.1300000000000D+00  0.0000000000000D+00  0.0000000000000D+00
   415  4.1400000000000D+00  0.0000000000000D+00  0.0000000000000D+00
   416  4.1500000000000D+00  0.0000000000000D+00  0.0000000000000D+00
   417  4.1600000000000D+00  0.0000000000000D+00  0.0000000000000D+00
   418  4.1700000000000D+00  0.0000000000000D+00  0.0000000000000D+00
   419  4.1800000000000D+00  0.0000000000000D+00  0.0000000000000D+00
   420  4.1900000000000D+00  0.0000000000000D+00  0.0000000000000D+00
   421  4.2000000000000D+00  0.0000000000000D+00  0.0000000000000D+00
   422  4.2100000000000D+00  0.0000000000000D+00  0.0000000000000D+00