Ni    ONCVPSP-3.3.0  r_core=   1.26116   1.35474   1.65929
     28.0000     18.0000      220408    zatom,zion,pspd
     8       2   2     4   600     0    pspcod,pspxc,lmax,lloc,mmax,r2well
  5.99000000  0.00000000  0.00000000    rchrg fchrg qchrg
     2     2     2     0     0    nproj
     1     1           extension_switch
   0                         6.2262465247240D+00 -2.5213538073241D-01
     1  0.0000000000000D+00 -1.4016545701878D-09 -1.1681921541218D-08
     2  1.0000000000000D-02  1.0465711884095D-01  5.6052216114312D-02
     3  2.0000000000000D-02  2.0891502908278D-01  1.1153297095146D-01
     4  3.0000000000000D-02  3.1237685205859D-01  1.6587972293378D-01
     5  4.0000000000000D-02  4.1465034533102D-01  2.1854760865495D-01
     6  5.0000000000000D-02  5.1535016208686D-01  2.6901788196068D-01
     7  6.0000000000000D-02  6.1410004108792D-01  3.1680588154543D-01
     8  7.0000000000000D-02  7.1053490571176D-01  3.6146838393368D-01
     9  8.0000000000000D-02  8.0430285201713D-01  4.0261021039619D-01
    10  9.0000000000000D-02  8.9506700747307D-01  4.3988997053266D-01
    11  1.0000000000000D-01  9.8250724396534D-01  4.7302484166158D-01
    12  1.1000000000000D-01  1.0663217309043D+00  5.0179430148488D-01
    13  1.2000000000000D-01  1.1462283166636D+00  5.2604275138826D-01
    14  1.3000000000000D-01  1.2219657291376D+00  5.4568098882060D-01
    15  1.4000000000000D-01  1.2932945888672D+00  5.6068650906284D-01
    16  1.5000000000000D-01  1.3599982309050D+00  5.7110263893080D-01
    17  1.6000000000000D-01  1.4218833343224D+00  5.7703652713218D-01
    18  1.7000000000000D-01  1.4787803609472D+00  5.7865603768707D-01
    19  1.8000000000000D-01  1.5305438075261D+00  5.7618561360922D-01
    20  1.9000000000000D-01  1.5770522779706D+00  5.6990119752730D-01
    21  2.0000000000000D-01  1.6182083846374D+00  5.6012431372680D-01
    22  2.1000000000000D-01  1.6539384896668D+00  5.4721543186433D-01
    23  2.2000000000000D-01  1.6841922992204D+00  5.3156674604148D-01
    24  2.3000000000000D-01  1.7089423249997D+00  5.1359451375656D-01
    25  2.4000000000000D-01  1.7281832286498D+00  4.9373110726663D-01
    26  2.5000000000000D-01  1.7419310655567D+00  4.7241693492446D-01
    27  2.6000000000000D-01  1.7502224451037D+00  4.5009239199987D-01
    28  2.7000000000000D-01  1.7531136246662D+00  4.2718999930743D-01
    29  2.8000000000000D-01  1.7506795544928D+00  4.0412688365207D-01
    30  2.9000000000000D-01  1.7430128901488D+00  3.8129774674927D-01
    31  3.0000000000000D-01  1.7302229884076D+00  3.5906845900608D-01
    32  3.1000000000000D-01  1.7124349013761D+00  3.3777040155668D-01
    33  3.2000000000000D-01  1.6897883822703D+00  3.1769566447173D-01
    34  3.3000000000000D-01  1.6624369146401D+00  2.9909319140324D-01
    35  3.4000000000000D-01  1.6305467750198D+00  2.8216594141724D-01
    36  3.5000000000000D-01  1.5942961369920D+00  2.6706911778754D-01
    37  3.6000000000000D-01  1.5538742225456D+00  2.5390949147664D-01
    38  3.7000000000000D-01  1.5094805044245D+00  2.4274582434969D-01
    39  3.8000000000000D-01  1.4613239609579D+00  2.3359037429557D-01
    40  3.9000000000000D-01  1.4096223826814D+00  2.2641144182338D-01
    41  4.0000000000000D-01  1.3546017279506D+00  2.2113689580975D-01
    42  4.1000000000000D-01  1.2964955227606D+00  2.1765859533565D-01
    43  4.2000000000000D-01  1.2355442981706D+00  2.1583760539216D-01
    44  4.3000000000000D-01  1.1719950571164D+00  2.1551008704631D-01
    45  4.4000000000000D-01  1.1061007610391D+00  2.1649372780006D-01
    46  4.5000000000000D-01  1.0381198256684D+00  2.1859456566506D-01
    47  4.6000000000000D-01  9.6831561453081D-01  2.2161405117781D-01
    48  4.7000000000000D-01  8.9695591830367D-01  2.2535618541094D-01
    49  4.8000000000000D-01  8.2431240803521D-01  2.2963456914272D-01
    50  4.9000000000000D-01  7.5066005049731D-01  2.3427919882777D-01
    51  5.0000000000000D-01  6.7627647453628D-01  2.3914284888285D-01
    52  5.1000000000000D-01  6.0144127822553D-01  2.4410688702345D-01
    53  5.2000000000000D-01  5.2643526789110D-01  2.4908637985400D-01
    54  5.3000000000000D-01  4.5153962165225D-01  2.5403435945336D-01
    55  5.4000000000000D-01  3.7703497196437D-01  2.5894513805325D-01
    56  5.5000000000000D-01  3.0320040373809D-01  2.6385657681968D-01
    57  5.6000000000000D-01  2.3031236689249D-01  2.6885123584476D-01
    58  5.7000000000000D-01  1.5864350463242D-01  2.7405635530983D-01
    59  5.8000000000000D-01  8.8461401282068D-02  2.7964264207872D-01
    60  5.9000000000000D-01  2.0027256081803D-02  2.8582186102546D-01
    61  6.0000000000000D-01 -4.6405508060267D-02  2.9284325602115D-01
    62  6.1000000000000D-01 -1.1059268937121D-01  3.0098885082248D-01
    63  6.2000000000000D-01 -1.7230079168607D-01  3.1056770497243D-01
    64  6.3000000000000D-01 -2.3130853250092D-01  3.2190922346532D-01
    65  6.4000000000000D-01 -2.8740835654141D-01  3.3535564095761D-01
    66  6.5000000000000D-01 -3.4040793508137D-01  3.5125382135384D-01
    67  6.6000000000000D-01 -3.9013162988182D-01  3.6994653100636D-01
    68  6.7000000000000D-01 -4.3642189961469D-01  3.9176335838028D-01
    69  6.8000000000000D-01 -4.7914062603073D-01  4.1701146440719D-01
    70  6.9000000000000D-01 -5.1817033695473D-01  4.4596635558567D-01
    71  7.0000000000000D-01 -5.5341530345027D-01  4.7886287605301D-01
    72  7.1000000000000D-01 -5.8480248921584D-01  5.1588661515727D-01
    73  7.2000000000000D-01 -6.1228233144191D-01  5.5716592343662D-01
    74  7.3000000000000D-01 -6.3582933397155D-01  6.0276472240354D-01
    75  7.4000000000000D-01 -6.5544245565523D-01  6.5267628215369D-01
    76  7.5000000000000D-01 -6.7114527921911D-01  7.0681812591604D-01
    77  7.6000000000000D-01 -6.8298594879581D-01  7.6502820211742D-01
    78  7.7000000000000D-01 -6.9103686738823D-01  8.2706244308373D-01
    79  7.8000000000000D-01 -6.9539414895208D-01  8.9259380518473D-01
    80  7.9000000000000D-01 -6.9617682341002D-01  9.6121285863633D-01
    81  8.0000000000000D-01 -6.9352579669542D-01  1.0324299667398D+00
    82  8.1000000000000D-01 -6.8760257179832D-01  1.1056790645919D+00
    83  8.2000000000000D-01 -6.7858774068237D-01  1.1803230167982D+00
    84  8.3000000000000D-01 -6.6667926078606D-01  1.2556605030432D+00
    85  8.4000000000000D-01 -6.5209053354413D-01  1.3309343501060D+00
    86  8.5000000000000D-01 -6.3504830589303D-01  1.4053411996420D+00
    87  8.6000000000000D-01 -6.1579041898933D-01  1.4780423733743D+00
    88  8.7000000000000D-01 -5.9456343130618D-01  1.5481757717869D+00
    89  8.8000000000000D-01 -5.7162014581965D-01  1.6148686195272D+00
    90  8.9000000000000D-01 -5.4721707309890D-01  1.6772508509745D+00
    91  9.0000000000000D-01 -5.2161186372511D-01  1.7344689132412D+00
    92  9.1000000000000D-01 -4.9506074454325D-01  1.7856997516050D+00
    93  9.2000000000000D-01 -4.6781599376943D-01  1.8301647343131D+00
    94  9.3000000000000D-01 -4.4012348991344D-01  1.8671432700709D+00
    95  9.4000000000000D-01 -4.1222036882143D-01  1.8959858724484D+00
    96  9.5000000000000D-01 -3.8433282189857D-01  1.9161264309694D+00
    97  9.6000000000000D-01 -3.5667406674732D-01  1.9270934587348D+00
    98  9.7000000000000D-01 -3.2944251907627D-01  1.9285201009501D+00
    99  9.8000000000000D-01 -3.0282019184200D-01  1.9201527073834D+00
   100  9.9000000000000D-01 -2.7697134412085D-01  1.9018577950067D+00
   101  1.0000000000000D+00 -2.5204139859097D-01  1.8736272518944D+00
   102  1.0100000000000D+00 -2.2815614207579D-01  1.8355816644923D+00
   103  1.0200000000000D+00 -2.0542121929248D-01  1.7879716810759D+00
   104  1.0300000000000D+00 -1.8392192518050D-01  1.7311773585816D+00
   105  1.0400000000000D+00 -1.6372329637417D-01  1.6657054750620D+00
   106  1.0500000000000D+00 -1.4487049729644D-01  1.5921848274740D+00
   107  1.0600000000000D+00 -1.2738949189405D-01  1.5113595675305D+00
   108  1.0700000000000D+00 -1.1128798673432D-01  1.4240806679523D+00
   109  1.0800000000000D+00 -9.6556626924469D-02  1.3312956435410D+00
   110  1.0900000000000D+00 -8.3170421950637D-02  1.2340366845276D+00
   111  1.1000000000000D+00 -7.1090374382921D-02  1.1334073913595D+00
   112  1.1100000000000D+00 -6.0265281426496D-02  1.0305683228214D+00
   113  1.1200000000000D+00 -5.0633675464747D-02  9.2672159909898D-01
   114  1.1300000000000D+00 -4.2125867851990D-02  8.2309481624288D-01
   115  1.1400000000000D+00 -3.4666058091018D-02  7.2092454540283D-01
   116  1.1500000000000D+00 -2.8174469411719D-02  6.2143969926566D-01
   117  1.1600000000000D+00 -2.2569470877383D-02  5.2584505589491D-01
   118  1.1700000000000D+00 -1.7769645370724D-02  4.3530524222619D-01
   119  1.1800000000000D+00 -1.3695764285596D-02  3.5092946009051D-01
   120  1.1900000000000D+00 -1.0272677546159D-02  2.7375668206951D-01
   121  1.2000000000000D+00 -7.4308825155185D-03  2.0474402039997D-01
   122  1.2100000000000D+00 -5.1081221314920D-03  1.4475381912757D-01
   123  1.2200000000000D+00 -3.2524315384320D-03  9.4543761542641D-02
   124  1.2300000000000D+00 -1.8224249459069D-03  5.4670162680179D-02
   125  1.2400000000000D+00 -7.8821096644054D-04  2.5404924006713D-02
   126  1.2500000000000D+00 -1.5911784948914D-04  7.9267880878526D-03
   127  1.2600000000000D+00  8.8398794723692D-05  9.6566055745793D-04
   128  1.2700000000000D+00  5.8753728347520D-05 -2.6216868896774D-04
   129  1.2800000000000D+00 -1.4010582059183D-05  9.6323212496156D-05
   130  1.2900000000000D+00 -4.6353888727910D-06  3.7630684026730D-05
   131  1.3000000000000D+00  3.4737938718545D-06 -1.9935560624364D-05
   132  1.3100000000000D+00 -1.6648375747222D-07 -1.0845230280738D-06
   133  1.3200000000000D+00 -1.3754162931538D-07 -8.9598568999265D-07
   134  1.3300000000000D+00  0.0000000000000D+00  0.0000000000000D+00
   135  1.3400000000000D+00  0.0000000000000D+00  0.0000000000000D+00
   136  1.3500000000000D+00  0.0000000000000D+00  0.0000000000000D+00
   137  1.3600000000000D+00  0.0000000000000D+00  0.0000000000000D+00
   138  1.3700000000000D+00  0.0000000000000D+00  0.0000000000000D+00
   139  1.3800000000000D+00  0.0000000000000D+00  0.0000000000000D+00
   140  1.3900000000000D+00  0.0000000000000D+00  0.0000000000000D+00
   141  1.4000000000000D+00  0.0000000000000D+00  0.0000000000000D+00
   142  1.4100000000000D+00  0.0000000000000D+00  0.0000000000000D+00
   143  1.4200000000000D+00  0.0000000000000D+00  0.0000000000000D+00
   144  1.4300000000000D+00  0.0000000000000D+00  0.0000000000000D+00
   145  1.4400000000000D+00  0.0000000000000D+00  0.0000000000000D+00
   146  1.4500000000000D+00  0.0000000000000D+00  0.0000000000000D+00
   147  1.4600000000000D+00  0.0000000000000D+00  0.0000000000000D+00
   148  1.4700000000000D+00  0.0000000000000D+00  0.0000000000000D+00
   149  1.4800000000000D+00  0.0000000000000D+00  0.0000000000000D+00
   150  1.4900000000000D+00  0.0000000000000D+00  0.0000000000000D+00
   151  1.5000000000000D+00  0.0000000000000D+00  0.0000000000000D+00
   152  1.5100000000000D+00  0.0000000000000D+00  0.0000000000000D+00
   153  1.5200000000000D+00  0.0000000000000D+00  0.0000000000000D+00
   154  1.5300000000000D+00  0.0000000000000D+00  0.0000000000000D+00
   155  1.5400000000000D+00  0.0000000000000D+00  0.0000000000000D+00
   156  1.5500000000000D+00  0.0000000000000D+00  0.0000000000000D+00
   157  1.5600000000000D+00  0.0000000000000D+00  0.0000000000000D+00
   158  1.5700000000000D+00  0.0000000000000D+00  0.0000000000000D+00
   159  1.5800000000000D+00  0.0000000000000D+00  0.0000000000000D+00
   160  1.5900000000000D+00  0.0000000000000D+00  0.0000000000000D+00
   161  1.6000000000000D+00  0.0000000000000D+00  0.0000000000000D+00
   162  1.6100000000000D+00  0.0000000000000D+00  0.0000000000000D+00
   163  1.6200000000000D+00  0.0000000000000D+00  0.0000000000000D+00
   164  1.6300000000000D+00  0.0000000000000D+00  0.0000000000000D+00
   165  1.6400000000000D+00  0.0000000000000D+00  0.0000000000000D+00
   166  1.6500000000000D+00  0.0000000000000D+00  0.0000000000000D+00
   167  1.6600000000000D+00  0.0000000000000D+00  0.0000000000000D+00
   168  1.6700000000000D+00  0.0000000000000D+00  0.0000000000000D+00
   169  1.6800000000000D+00  0.0000000000000D+00  0.0000000000000D+00
   170  1.6900000000000D+00  0.0000000000000D+00  0.0000000000000D+00
   171  1.7000000000000D+00  0.0000000000000D+00  0.0000000000000D+00
   172  1.7100000000000D+00  0.0000000000000D+00  0.0000000000000D+00
   173  1.7200000000000D+00  0.0000000000000D+00  0.0000000000000D+00
   174  1.7300000000000D+00  0.0000000000000D+00  0.0000000000000D+00
   175  1.7400000000000D+00  0.0000000000000D+00  0.0000000000000D+00
   176  1.7500000000000D+00  0.0000000000000D+00  0.0000000000000D+00
   177  1.7600000000000D+00  0.0000000000000D+00  0.0000000000000D+00
   178  1.7700000000000D+00  0.0000000000000D+00  0.0000000000000D+00
   179  1.7800000000000D+00  0.0000000000000D+00  0.0000000000000D+00
   180  1.7900000000000D+00  0.0000000000000D+00  0.0000000000000D+00
   181  1.8000000000000D+00  0.0000000000000D+00  0.0000000000000D+00
   182  1.8100000000000D+00  0.0000000000000D+00  0.0000000000000D+00
   183  1.8200000000000D+00  0.0000000000000D+00  0.0000000000000D+00
   184  1.8300000000000D+00  0.0000000000000D+00  0.0000000000000D+00
   185  1.8400000000000D+00  0.0000000000000D+00  0.0000000000000D+00
   186  1.8500000000000D+00  0.0000000000000D+00  0.0000000000000D+00
   187  1.8600000000000D+00  0.0000000000000D+00  0.0000000000000D+00
   188  1.8700000000000D+00  0.0000000000000D+00  0.0000000000000D+00
   189  1.8800000000000D+00  0.0000000000000D+00  0.0000000000000D+00
   190  1.8900000000000D+00  0.0000000000000D+00  0.0000000000000D+00
   191  1.9000000000000D+00  0.0000000000000D+00  0.0000000000000D+00
   192  1.9100000000000D+00  0.0000000000000D+00  0.0000000000000D+00
   193  1.9200000000000D+00  0.0000000000000D+00  0.0000000000000D+00
   194  1.9300000000000D+00  0.0000000000000D+00  0.0000000000000D+00
   195  1.9400000000000D+00  0.0000000000000D+00  0.0000000000000D+00
   196  1.9500000000000D+00  0.0000000000000D+00  0.0000000000000D+00
   197  1.9600000000000D+00  0.0000000000000D+00  0.0000000000000D+00
   198  1.9700000000000D+00  0.0000000000000D+00  0.0000000000000D+00
   199  1.9800000000000D+00  0.0000000000000D+00  0.0000000000000D+00
   200  1.9900000000000D+00  0.0000000000000D+00  0.0000000000000D+00
   201  2.0000000000000D+00  0.0000000000000D+00  0.0000000000000D+00
   202  2.0100000000000D+00  0.0000000000000D+00  0.0000000000000D+00
   203  2.0200000000000D+00  0.0000000000000D+00  0.0000000000000D+00
   204  2.0300000000000D+00  0.0000000000000D+00  0.0000000000000D+00
   205  2.0400000000000D+00  0.0000000000000D+00  0.0000000000000D+00
   206  2.0500000000000D+00  0.0000000000000D+00  0.0000000000000D+00
   207  2.0600000000000D+00  0.0000000000000D+00  0.0000000000000D+00
   208  2.0700000000000D+00  0.0000000000000D+00  0.0000000000000D+00
   209  2.0800000000000D+00  0.0000000000000D+00  0.0000000000000D+00
   210  2.0900000000000D+00  0.0000000000000D+00  0.0000000000000D+00
   211  2.1000000000000D+00  0.0000000000000D+00  0.0000000000000D+00
   212  2.1100000000000D+00  0.0000000000000D+00  0.0000000000000D+00
   213  2.1200000000000D+00  0.0000000000000D+00  0.0000000000000D+00
   214  2.1300000000000D+00  0.0000000000000D+00  0.0000000000000D+00
   215  2.1400000000000D+00  0.0000000000000D+00  0.0000000000000D+00
   216  2.1500000000000D+00  0.0000000000000D+00  0.0000000000000D+00
   217  2.1600000000000D+00  0.0000000000000D+00  0.0000000000000D+00
   218  2.1700000000000D+00  0.0000000000000D+00  0.0000000000000D+00
   219  2.1800000000000D+00  0.0000000000000D+00  0.0000000000000D+00
   220  2.1900000000000D+00  0.0000000000000D+00  0.0000000000000D+00
   221  2.2000000000000D+00  0.0000000000000D+00  0.0000000000000D+00
   222  2.2100000000000D+00  0.0000000000000D+00  0.0000000000000D+00
   223  2.2200000000000D+00  0.0000000000000D+00  0.0000000000000D+00
   224  2.2300000000000D+00  0.0000000000000D+00  0.0000000000000D+00
   225  2.2400000000000D+00  0.0000000000000D+00  0.0000000000000D+00
   226  2.2500000000000D+00  0.0000000000000D+00  0.0000000000000D+00
   227  2.2600000000000D+00  0.0000000000000D+00  0.0000000000000D+00
   228  2.2700000000000D+00  0.0000000000000D+00  0.0000000000000D+00
   229  2.2800000000000D+00  0.0000000000000D+00  0.0000000000000D+00
   230  2.2900000000000D+00  0.0000000000000D+00  0.0000000000000D+00
   231  2.3000000000000D+00  0.0000000000000D+00  0.0000000000000D+00
   232  2.3100000000000D+00  0.0000000000000D+00  0.0000000000000D+00
   233  2.3200000000000D+00  0.0000000000000D+00  0.0000000000000D+00
   234  2.3300000000000D+00  0.0000000000000D+00  0.0000000000000D+00
   235  2.3400000000000D+00  0.0000000000000D+00  0.0000000000000D+00
   236  2.3500000000000D+00  0.0000000000000D+00  0.0000000000000D+00
   237  2.3600000000000D+00  0.0000000000000D+00  0.0000000000000D+00
   238  2.3700000000000D+00  0.0000000000000D+00  0.0000000000000D+00
   239  2.3800000000000D+00  0.0000000000000D+00  0.0000000000000D+00
   240  2.3900000000000D+00  0.0000000000000D+00  0.0000000000000D+00
   241  2.4000000000000D+00  0.0000000000000D+00  0.0000000000000D+00
   242  2.4100000000000D+00  0.0000000000000D+00  0.0000000000000D+00
   243  2.4200000000000D+00  0.0000000000000D+00  0.0000000000000D+00
   244  2.4300000000000D+00  0.0000000000000D+00  0.0000000000000D+00
   245  2.4400000000000D+00  0.0000000000000D+00  0.0000000000000D+00
   246  2.4500000000000D+00  0.0000000000000D+00  0.0000000000000D+00
   247  2.4600000000000D+00  0.0000000000000D+00  0.0000000000000D+00
   248  2.4700000000000D+00  0.0000000000000D+00  0.0000000000000D+00
   249  2.4800000000000D+00  0.0000000000000D+00  0.0000000000000D+00
   250  2.4900000000000D+00  0.0000000000000D+00  0.0000000000000D+00
   251  2.5000000000000D+00  0.0000000000000D+00  0.0000000000000D+00
   252  2.5100000000000D+00  0.0000000000000D+00  0.0000000000000D+00
   253  2.5200000000000D+00  0.0000000000000D+00  0.0000000000000D+00
   254  2.5300000000000D+00  0.0000000000000D+00  0.0000000000000D+00
   255  2.5400000000000D+00  0.0000000000000D+00  0.0000000000000D+00
   256  2.5500000000000D+00  0.0000000000000D+00  0.0000000000000D+00
   257  2.5600000000000D+00  0.0000000000000D+00  0.0000000000000D+00
   258  2.5700000000000D+00  0.0000000000000D+00  0.0000000000000D+00
   259  2.5800000000000D+00  0.0000000000000D+00  0.0000000000000D+00
   260  2.5900000000000D+00  0.0000000000000D+00  0.0000000000000D+00
   261  2.6000000000000D+00  0.0000000000000D+00  0.0000000000000D+00
   262  2.6100000000000D+00  0.0000000000000D+00  0.0000000000000D+00
   263  2.6200000000000D+00  0.0000000000000D+00  0.0000000000000D+00
   264  2.6300000000000D+00  0.0000000000000D+00  0.0000000000000D+00
   265  2.6400000000000D+00  0.0000000000000D+00  0.0000000000000D+00
   266  2.6500000000000D+00  0.0000000000000D+00  0.0000000000000D+00
   267  2.6600000000000D+00  0.0000000000000D+00  0.0000000000000D+00
   268  2.6700000000000D+00  0.0000000000000D+00  0.0000000000000D+00
   269  2.6800000000000D+00  0.0000000000000D+00  0.0000000000000D+00
   270  2.6900000000000D+00  0.0000000000000D+00  0.0000000000000D+00
   271  2.7000000000000D+00  0.0000000000000D+00  0.0000000000000D+00
   272  2.7100000000000D+00  0.0000000000000D+00  0.0000000000000D+00
   273  2.7200000000000D+00  0.0000000000000D+00  0.0000000000000D+00
   274  2.7300000000000D+00  0.0000000000000D+00  0.0000000000000D+00
   275  2.7400000000000D+00  0.0000000000000D+00  0.0000000000000D+00
   276  2.7500000000000D+00  0.0000000000000D+00  0.0000000000000D+00
   277  2.7600000000000D+00  0.0000000000000D+00  0.0000000000000D+00
   278  2.7700000000000D+00  0.0000000000000D+00  0.0000000000000D+00
   279  2.7800000000000D+00  0.0000000000000D+00  0.0000000000000D+00
   280  2.7900000000000D+00  0.0000000000000D+00  0.0000000000000D+00
   281  2.8000000000000D+00  0.0000000000000D+00  0.0000000000000D+00
   282  2.8100000000000D+00  0.0000000000000D+00  0.0000000000000D+00
   283  2.8200000000000D+00  0.0000000000000D+00  0.0000000000000D+00
   284  2.8300000000000D+00  0.0000000000000D+00  0.0000000000000D+00
   285  2.8400000000000D+00  0.0000000000000D+00  0.0000000000000D+00
   286  2.8500000000000D+00  0.0000000000000D+00  0.0000000000000D+00
   287  2.8600000000000D+00  0.0000000000000D+00  0.0000000000000D+00
   288  2.8700000000000D+00  0.0000000000000D+00  0.0000000000000D+00
   289  2.8800000000000D+00  0.0000000000000D+00  0.0000000000000D+00
   290  2.8900000000000D+00  0.0000000000000D+00  0.0000000000000D+00
   291  2.9000000000000D+00  0.0000000000000D+00  0.0000000000000D+00
   292  2.9100000000000D+00  0.0000000000000D+00  0.0000000000000D+00
   293  2.9200000000000D+00  0.0000000000000D+00  0.0000000000000D+00
   294  2.9300000000000D+00  0.0000000000000D+00  0.0000000000000D+00
   295  2.9400000000000D+00  0.0000000000000D+00  0.0000000000000D+00
   296  2.9500000000000D+00  0.0000000000000D+00  0.0000000000000D+00
   297  2.9600000000000D+00  0.0000000000000D+00  0.0000000000000D+00
   298  2.9700000000000D+00  0.0000000000000D+00  0.0000000000000D+00
   299  2.9800000000000D+00  0.0000000000000D+00  0.0000000000000D+00
   300  2.9900000000000D+00  0.0000000000000D+00  0.0000000000000D+00
   301  3.0000000000000D+00  0.0000000000000D+00  0.0000000000000D+00
   302  3.0100000000000D+00  0.0000000000000D+00  0.0000000000000D+00
   303  3.0200000000000D+00  0.0000000000000D+00  0.0000000000000D+00
   304  3.0300000000000D+00  0.0000000000000D+00  0.0000000000000D+00
   305  3.0400000000000D+00  0.0000000000000D+00  0.0000000000000D+00
   306  3.0500000000000D+00  0.0000000000000D+00  0.0000000000000D+00
   307  3.0600000000000D+00  0.0000000000000D+00  0.0000000000000D+00
   308  3.0700000000000D+00  0.0000000000000D+00  0.0000000000000D+00
   309  3.0800000000000D+00  0.0000000000000D+00  0.0000000000000D+00
   310  3.0900000000000D+00  0.0000000000000D+00  0.0000000000000D+00
   311  3.1000000000000D+00  0.0000000000000D+00  0.0000000000000D+00
   312  3.1100000000000D+00  0.0000000000000D+00  0.0000000000000D+00
   313  3.1200000000000D+00  0.0000000000000D+00  0.0000000000000D+00
   314  3.1300000000000D+00  0.0000000000000D+00  0.0000000000000D+00
   315  3.1400000000000D+00  0.0000000000000D+00  0.0000000000000D+00
   316  3.1500000000000D+00  0.0000000000000D+00  0.0000000000000D+00
   317  3.1600000000000D+00  0.0000000000000D+00  0.0000000000000D+00
   318  3.1700000000000D+00  0.0000000000000D+00  0.0000000000000D+00
   319  3.1800000000000D+00  0.0000000000000D+00  0.0000000000000D+00
   320  3.1900000000000D+00  0.0000000000000D+00  0.0000000000000D+00
   321  3.2000000000000D+00  0.0000000000000D+00  0.0000000000000D+00
   322  3.2100000000000D+00  0.0000000000000D+00  0.0000000000000D+00
   323  3.2200000000000D+00  0.0000000000000D+00  0.0000000000000D+00
   324  3.2300000000000D+00  0.0000000000000D+00  0.0000000000000D+00
   325  3.2400000000000D+00  0.0000000000000D+00  0.0000000000000D+00
   326  3.2500000000000D+00  0.0000000000000D+00  0.0000000000000D+00
   327  3.2600000000000D+00  0.0000000000000D+00  0.0000000000000D+00
   328  3.2700000000000D+00  0.0000000000000D+00  0.0000000000000D+00
   329  3.2800000000000D+00  0.0000000000000D+00  0.0000000000000D+00
   330  3.2900000000000D+00  0.0000000000000D+00  0.0000000000000D+00
   331  3.3000000000000D+00  0.0000000000000D+00  0.0000000000000D+00
   332  3.3100000000000D+00  0.0000000000000D+00  0.0000000000000D+00
   333  3.3200000000000D+00  0.0000000000000D+00  0.0000000000000D+00
   334  3.3300000000000D+00  0.0000000000000D+00  0.0000000000000D+00
   335  3.3400000000000D+00  0.0000000000000D+00  0.0000000000000D+00
   336  3.3500000000000D+00  0.0000000000000D+00  0.0000000000000D+00
   337  3.3600000000000D+00  0.0000000000000D+00  0.0000000000000D+00
   338  3.3700000000000D+00  0.0000000000000D+00  0.0000000000000D+00
   339  3.3800000000000D+00  0.0000000000000D+00  0.0000000000000D+00
   340  3.3900000000000D+00  0.0000000000000D+00  0.0000000000000D+00
   341  3.4000000000000D+00  0.0000000000000D+00  0.0000000000000D+00
   342  3.4100000000000D+00  0.0000000000000D+00  0.0000000000000D+00
   343  3.4200000000000D+00  0.0000000000000D+00  0.0000000000000D+00
   344  3.4300000000000D+00  0.0000000000000D+00  0.0000000000000D+00
   345  3.4400000000000D+00  0.0000000000000D+00  0.0000000000000D+00
   346  3.4500000000000D+00  0.0000000000000D+00  0.0000000000000D+00
   347  3.4600000000000D+00  0.0000000000000D+00  0.0000000000000D+00
   348  3.4700000000000D+00  0.0000000000000D+00  0.0000000000000D+00
   349  3.4800000000000D+00  0.0000000000000D+00  0.0000000000000D+00
   350  3.4900000000000D+00  0.0000000000000D+00  0.0000000000000D+00
   351  3.5000000000000D+00  0.0000000000000D+00  0.0000000000000D+00
   352  3.5100000000000D+00  0.0000000000000D+00  0.0000000000000D+00
   353  3.5200000000000D+00  0.0000000000000D+00  0.0000000000000D+00
   354  3.5300000000000D+00  0.0000000000000D+00  0.0000000000000D+00
   355  3.5400000000000D+00  0.0000000000000D+00  0.0000000000000D+00
   356  3.5500000000000D+00  0.0000000000000D+00  0.0000000000000D+00
   357  3.5600000000000D+00  0.0000000000000D+00  0.0000000000000D+00
   358  3.5700000000000D+00  0.0000000000000D+00  0.0000000000000D+00
   359  3.5800000000000D+00  0.0000000000000D+00  0.0000000000000D+00
   360  3.5900000000000D+00  0.0000000000000D+00  0.0000000000000D+00
   361  3.6000000000000D+00  0.0000000000000D+00  0.0000000000000D+00
   362  3.6100000000000D+00  0.0000000000000D+00  0.0000000000000D+00
   363  3.6200000000000D+00  0.0000000000000D+00  0.0000000000000D+00
   364  3.6300000000000D+00  0.0000000000000D+00  0.0000000000000D+00
   365  3.6400000000000D+00  0.0000000000000D+00  0.0000000000000D+00
   366  3.6500000000000D+00  0.0000000000000D+00  0.0000000000000D+00
   367  3.6600000000000D+00  0.0000000000000D+00  0.0000000000000D+00
   368  3.6700000000000D+00  0.0000000000000D+00  0.0000000000000D+00
   369  3.6800000000000D+00  0.0000000000000D+00  0.0000000000000D+00
   370  3.6900000000000D+00  0.0000000000000D+00  0.0000000000000D+00
   371  3.7000000000000D+00  0.0000000000000D+00  0.0000000000000D+00
   372  3.7100000000000D+00  0.0000000000000D+00  0.0000000000000D+00
   373  3.7200000000000D+00  0.0000000000000D+00  0.0000000000000D+00
   374  3.7300000000000D+00  0.0000000000000D+00  0.0000000000000D+00
   375  3.7400000000000D+00  0.0000000000000D+00  0.0000000000000D+00
   376  3.7500000000000D+00  0.0000000000000D+00  0.0000000000000D+00
   377  3.7600000000000D+00  0.0000000000000D+00  0.0000000000000D+00
   378  3.7700000000000D+00  0.0000000000000D+00  0.0000000000000D+00
   379  3.7800000000000D+00  0.0000000000000D+00  0.0000000000000D+00
   380  3.7900000000000D+00  0.0000000000000D+00  0.0000000000000D+00
   381  3.8000000000000D+00  0.0000000000000D+00  0.0000000000000D+00
   382  3.8100000000000D+00  0.0000000000000D+00  0.0000000000000D+00
   383  3.8200000000000D+00  0.0000000000000D+00  0.0000000000000D+00
   384  3.8300000000000D+00  0.0000000000000D+00  0.0000000000000D+00
   385  3.8400000000000D+00  0.0000000000000D+00  0.0000000000000D+00
   386  3.8500000000000D+00  0.0000000000000D+00  0.0000000000000D+00
   387  3.8600000000000D+00  0.0000000000000D+00  0.0000000000000D+00
   388  3.8700000000000D+00  0.0000000000000D+00  0.0000000000000D+00
   389  3.8800000000000D+00  0.0000000000000D+00  0.0000000000000D+00
   390  3.8900000000000D+00  0.0000000000000D+00  0.0000000000000D+00
   391  3.9000000000000D+00  0.0000000000000D+00  0.0000000000000D+00
   392  3.9100000000000D+00  0.0000000000000D+00  0.0000000000000D+00
   393  3.9200000000000D+00  0.0000000000000D+00  0.0000000000000D+00
   394  3.9300000000000D+00  0.0000000000000D+00  0.0000000000000D+00
   395  3.9400000000000D+00  0.0000000000000D+00  0.0000000000000D+00
   396  3.9500000000000D+00  0.0000000000000D+00  0.0000000000000D+00
   397  3.9600000000000D+00  0.0000000000000D+00  0.0000000000000D+00
   398  3.9700000000000D+00  0.0000000000000D+00  0.0000000000000D+00
   399  3.9800000000000D+00  0.0000000000000D+00  0.0000000000000D+00
   400  3.9900000000000D+00  0.0000000000000D+00  0.0000000000000D+00
   401  4.0000000000000D+00  0.0000000000000D+00  0.0000000000000D+00
   402  4.0100000000000D+00  0.0000000000000D+00  0.0000000000000D+00
   403  4.0200000000000D+00  0.0000000000000D+00  0.0000000000000D+00
   404  4.0300000000000D+00  0.0000000000000D+00  0.0000000000000D+00
   405  4.0400000000000D+00  0.0000000000000D+00  0.0000000000000D+00
   406  4.0500000000000D+00  0.0000000000000D+00  0.0000000000000D+00
   407  4.0600000000000D+00  0.0000000000000D+00  0.0000000000000D+00
   408  4.0700000000000D+00  0.0000000000000D+00  0.0000000000000D+00
   409  4.0800000000000D+00  0.0000000000000D+00  0.0000000000000D+00
   410  4.0900000000000D+00  0.0000000000000D+00  0.0000000000000D+00
   411  4.1000000000000D+00  0.0000000000000D+00  0.0000000000000D+00
   412  4.1100000000000D+00  0.0000000000000D+00  0.0000000000000D+00
   413  4.1200000000000D+00  0.0000000000000D+00  0.0000000000000D+00
   414  4.1300000000000D+00  0.0000000000000D+00  0.0000000000000D+00
   415  4.1400000000000D+00  0.0000000000000D+00  0.0000000000000D+00
   416  4.1500000000000D+00  0.0000000000000D+00  0.0000000000000D+00
   417  4.1600000000000D+00  0.0000000000000D+00  0.0000000000000D+00
   418  4.1700000000000D+00  0.0000000000000D+00  0.0000000000000D+00
   419  4.1800000000000D+00  0.0000000000000D+00  0.0000000000000D+00
   420  4.1900000000000D+00  0.0000000000000D+00  0.0000000000000D+00
   421  4.2000000000000D+00  0.0000000000000D+00  0.0000000000000D+00
   422  4.2100000000000D+00  0.0000000000000D+00  0.0000000000000D+00