Ni    ONCVPSP-3.3.0  r_core=   1.20240   1.26116   1.56322
     28.0000     18.0000      220408    zatom,zion,pspd
     8       2   2     4   600     0    pspcod,pspxc,lmax,lloc,mmax,r2well
  5.99000000  0.00000000  0.00000000    rchrg fchrg qchrg
     2     2     2     0     0    nproj
     1     1           extension_switch
   0                         7.6270694903692D+00 -3.1741976150107D-01
     1  0.0000000000000D+00 -2.3802853021948D-09 -1.5767772976183D-08
     2  1.0000000000000D-02  1.1364302147232D-01  4.8405594047432D-02
     3  2.0000000000000D-02  2.2680449821276D-01  9.6264421408595D-02
     4  3.0000000000000D-02  3.3900607229247D-01  1.4303957679028D-01
     5  4.0000000000000D-02  4.4977572294693D-01  1.8821367935597D-01
     6  5.0000000000000D-02  5.5865084467989D-01  2.3129814328775D-01
     7  6.0000000000000D-02  6.6518121853381D-01  2.7184186990177D-01
     8  7.0000000000000D-02  7.6893184377874D-01  3.0943918749693D-01
     9  8.0000000000000D-02  8.6948559965209D-01  3.4373688088436D-01
    10  9.0000000000000D-02  9.6644570966614D-01  3.7444017162471D-01
    11  1.0000000000000D-01  1.0594379843320D+00  4.0131753199073D-01
    12  1.1000000000000D-01  1.1481128218604D+00  4.2420424011176D-01
    13  1.2000000000000D-01  1.2321469504181D+00  4.4300461013059D-01
    14  1.3000000000000D-01  1.3112448997626D+00  4.5769285895525D-01
    15  1.4000000000000D-01  1.3851401944660D+00  4.6831259973499D-01
    16  1.5000000000000D-01  1.4535962653791D+00  4.7497498092608D-01
    17  1.6000000000000D-01  1.5164070803986D+00  4.7785551813409D-01
    18  1.7000000000000D-01  1.5733974998884D+00  4.7718969322119D-01
    19  1.8000000000000D-01  1.6244233661986D+00  4.7326742087408D-01
    20  1.9000000000000D-01  1.6693713405284D+00  4.6642650638910D-01
    21  2.0000000000000D-01  1.7081585038341D+00  4.5704523934518D-01
    22  2.1000000000000D-01  1.7407317415145D+00  4.4553428565268D-01
    23  2.2000000000000D-01  1.7670669341644D+00  4.3232805480233D-01
    24  2.3000000000000D-01  1.7871679787200D+00  4.1787572968259D-01
    25  2.4000000000000D-01  1.8010656658008D+00  4.0263215285185D-01
    26  2.5000000000000D-01  1.8088164399530D+00  3.8704876549835D-01
    27  2.6000000000000D-01  1.8105010698102D+00  3.7156479343365D-01
    28  2.7000000000000D-01  1.8062232549152D+00  3.5659886837692D-01
    29  2.8000000000000D-01  1.7961081950991D+00  3.4254126261608D-01
    30  2.9000000000000D-01  1.7803011469284D+00  3.2974690108501D-01
    31  3.0000000000000D-01  1.7589659898372D+00  3.1852929726519D-01
    32  3.1000000000000D-01  1.7322838222156D+00  3.0915553847298D-01
    33  3.2000000000000D-01  1.7004516049881D+00  3.0184242247034D-01
    34  3.3000000000000D-01  1.6636808671492D+00  2.9675382143711D-01
    35  3.4000000000000D-01  1.6221964844126D+00  2.9399932172017D-01
    36  3.5000000000000D-01  1.5762355386478D+00  2.9363415902112D-01
    37  3.6000000000000D-01  1.5260462622153D+00  2.9566043941783D-01
    38  3.7000000000000D-01  1.4718870677527D+00  3.0002960747546D-01
    39  3.8000000000000D-01  1.4140256604929D+00  3.0664609431948D-01
    40  3.9000000000000D-01  1.3527382269076D+00  3.1537205154798D-01
    41  4.0000000000000D-01  1.2883086904301D+00  3.2603305184532D-01
    42  4.1000000000000D-01  1.2210280223106D+00  3.3842461468878D-01
    43  4.2000000000000D-01  1.1511935933549D+00  3.5231939612225D-01
    44  4.3000000000000D-01  1.0791085504544D+00  3.6747486565291D-01
    45  4.4000000000000D-01  1.0050812004826D+00  3.8364128128609D-01
    46  4.5000000000000D-01  9.2942438334399D-01  4.0056976584264D-01
    47  4.6000000000000D-01  8.5245481574661D-01  4.1802028421140D-01
    48  4.7000000000000D-01  7.7449238763228D-01  4.3576932219010D-01
    49  4.8000000000000D-01  6.9585939414737D-01  4.5361707307896D-01
    50  4.9000000000000D-01  6.1687968754711D-01  4.7139394813442D-01
    51  5.0000000000000D-01  5.3787773547549D-01  4.8896624119105D-01
    52  5.1000000000000D-01  4.5917757460445D-01  5.0624079593702D-01
    53  5.2000000000000D-01  3.8110165159983D-01  5.2316854614251D-01
    54  5.3000000000000D-01  3.0396954674027D-01  5.3974682414005D-01
    55  5.4000000000000D-01  2.2809657917147D-01  5.5602036050061D-01
    56  5.5000000000000D-01  1.5379229665460D-01  5.7208092761956D-01
    57  5.6000000000000D-01  8.1358856669452D-02  5.8806561114198D-01
    58  5.7000000000000D-01  1.1089309760652D-02  6.0415372512287D-01
    59  5.8000000000000D-01 -5.6734200009000D-02  6.2056241898789D-01
    60  5.9000000000000D-01 -1.2184229884310D-01  6.3754105575115D-01
    61  6.0000000000000D-01 -1.8398028902347D-01  6.5536447123764D-01
    62  6.1000000000000D-01 -2.4291007136062D-01  6.7432525214489D-01
    63  6.2000000000000D-01 -2.9841205613507D-01  6.9472519641187D-01
    64  6.3000000000000D-01 -3.5028703215379D-01  7.1686614165411D-01
    65  6.4000000000000D-01 -3.9835796190087D-01  7.4104036596697D-01
    66  6.5000000000000D-01 -4.4247166975858D-01  7.6752077977372D-01
    67  6.6000000000000D-01 -4.8250038996638D-01  7.9655113707584D-01
    68  6.7000000000000D-01 -5.1834314138975D-01  8.2833649933757D-01
    69  6.8000000000000D-01 -5.4992689731483D-01  8.6303418501145D-01
    70  6.9000000000000D-01 -5.7720752036525D-01  9.0074543232197D-01
    71  7.0000000000000D-01 -6.0017043521594D-01  9.4150799254288D-01
    72  7.1000000000000D-01 -6.1883101507330D-01  9.8528985551148D-01
    73  7.2000000000000D-01 -6.3323466179446D-01  1.0319842890560D+00
    74  7.3000000000000D-01 -6.4345656400612D-01  1.0814063495580D+00
    75  7.4000000000000D-01 -6.4960112257716D-01  1.1332909924674D+00
    76  7.5000000000000D-01 -6.5180103816081D-01  1.1872928800800D+00
    77  7.6000000000000D-01 -6.5021606125731D-01  1.2429879492638D+00
    78  7.7000000000000D-01 -6.4503141111476D-01  1.2998767655689D+00
    79  7.8000000000000D-01 -6.3645587577410D-01  1.3573896523937D+00
    80  7.9000000000000D-01 -6.2471961150270D-01  1.4148935456885D+00
    81  8.0000000000000D-01 -6.1007166564165D-01  1.4717004867863D+00
    82  8.1000000000000D-01 -5.9277725239234D-01  1.5270776291633D+00
    83  8.2000000000000D-01 -5.7311481616996D-01  1.5802586000527D+00
    84  8.3000000000000D-01 -5.5137292174250D-01  1.6304560256311D+00
    85  8.4000000000000D-01 -5.2784701434986D-01  1.6768749996787D+00
    86  8.5000000000000D-01 -5.0283609626552D-01  1.7187272508514D+00
    87  8.6000000000000D-01 -4.7663936874004D-01  1.7552457435651D+00
    88  8.7000000000000D-01 -4.4955288988744D-01  1.7856994324889D+00
    89  8.8000000000000D-01 -4.2186629978921D-01  1.8094078811412D+00
    90  8.9000000000000D-01 -3.9385966386482D-01  1.8257554513946D+00
    91  9.0000000000000D-01 -3.6580048437684D-01  1.8342047729504D+00
    92  9.1000000000000D-01 -3.3794092780773D-01  1.8343092101151D+00
    93  9.2000000000000D-01 -3.1051531278670D-01  1.8257240573934D+00
    94  9.3000000000000D-01 -2.8373789930233D-01  1.8082162153113D+00
    95  9.4000000000000D-01 -2.5780101516981D-01  1.7816721231653D+00
    96  9.5000000000000D-01 -2.3287355020899D-01  1.7461037556166D+00
    97  9.6000000000000D-01 -2.0909984242579D-01  1.7016525246672D+00
    98  9.7000000000000D-01 -1.8659897378354D-01  1.6485909669054D+00
    99  9.8000000000000D-01 -1.6546448604075D-01  1.5873221371677D+00
   100  9.9000000000000D-01 -1.4576451957947D-01  1.5183766741479D+00
   101  1.0000000000000D+00 -1.2754237091997D-01  1.4424075463470D+00
   102  1.0100000000000D+00 -1.1081745658478D-01  1.3601825348642D+00
   103  1.0200000000000D+00 -9.5586663854356D-02  1.2725745525309D+00
   104  1.0300000000000D+00 -8.1826061666546D-02  1.1805499432261D+00
   105  1.0400000000000D+00 -6.9492938208025D-02  1.0851549462889D+00
   106  1.0500000000000D+00 -5.8528125400780D-02  9.8750055016062D-01
   107  1.0600000000000D+00 -4.8858565382688D-02  8.8874599113518D-01
   108  1.0700000000000D+00 -4.0400068803816D-02  7.9008118627554D-01
   109  1.0800000000000D+00 -3.3060211292579D-02  6.9270841170274D-01
   110  1.0900000000000D+00 -2.6741311438317D-02  5.9782355695690D-01
   111  1.1000000000000D+00 -2.1343431907176D-02  5.0659729800429D-01
   112  1.1100000000000D+00 -1.6767344374242D-02  4.2015653817013D-01
   113  1.1200000000000D+00 -1.2917399325723D-02  3.3956646560554D-01
   114  1.1300000000000D+00 -9.7042431780273D-03  2.6581356839389D-01
   115  1.1400000000000D+00 -7.0473281090678D-03  1.9978993178351D-01
   116  1.1500000000000D+00 -4.8771624639408D-03  1.4227912786967D-01
   117  1.1600000000000D+00 -3.1372550782655D-03  9.3943975949749D-02
   118  1.1700000000000D+00 -1.7862687161174D-03  5.5336853819383D-02
   119  1.1800000000000D+00 -7.9366664920295D-04  2.6647340075757D-02
   120  1.1900000000000D+00 -1.6148701954456D-04  8.7714586215089D-03
   121  1.2000000000000D+00  1.1001285422536D-04  1.2973384309341D-03
   122  1.2100000000000D+00  7.7836919048294D-05 -2.0364745363338D-04
   123  1.2200000000000D+00 -1.4815047943244D-05  7.1465989058710D-05
   124  1.2300000000000D+00 -4.8072784761903D-06  2.8502863009035D-05
   125  1.2400000000000D+00  3.8361534896366D-06 -1.5306156280751D-05
   126  1.2500000000000D+00 -2.7666496692067D-07 -1.2903803604034D-06
   127  1.2600000000000D+00 -8.1643713668708D-08 -3.8079069367211D-07
   128  1.2700000000000D+00  0.0000000000000D+00  0.0000000000000D+00
   129  1.2800000000000D+00  0.0000000000000D+00  0.0000000000000D+00
   130  1.2900000000000D+00  0.0000000000000D+00  0.0000000000000D+00
   131  1.3000000000000D+00  0.0000000000000D+00  0.0000000000000D+00
   132  1.3100000000000D+00  0.0000000000000D+00  0.0000000000000D+00
   133  1.3200000000000D+00  0.0000000000000D+00  0.0000000000000D+00
   134  1.3300000000000D+00  0.0000000000000D+00  0.0000000000000D+00
   135  1.3400000000000D+00  0.0000000000000D+00  0.0000000000000D+00
   136  1.3500000000000D+00  0.0000000000000D+00  0.0000000000000D+00
   137  1.3600000000000D+00  0.0000000000000D+00  0.0000000000000D+00
   138  1.3700000000000D+00  0.0000000000000D+00  0.0000000000000D+00
   139  1.3800000000000D+00  0.0000000000000D+00  0.0000000000000D+00
   140  1.3900000000000D+00  0.0000000000000D+00  0.0000000000000D+00
   141  1.4000000000000D+00  0.0000000000000D+00  0.0000000000000D+00
   142  1.4100000000000D+00  0.0000000000000D+00  0.0000000000000D+00
   143  1.4200000000000D+00  0.0000000000000D+00  0.0000000000000D+00
   144  1.4300000000000D+00  0.0000000000000D+00  0.0000000000000D+00
   145  1.4400000000000D+00  0.0000000000000D+00  0.0000000000000D+00
   146  1.4500000000000D+00  0.0000000000000D+00  0.0000000000000D+00
   147  1.4600000000000D+00  0.0000000000000D+00  0.0000000000000D+00
   148  1.4700000000000D+00  0.0000000000000D+00  0.0000000000000D+00
   149  1.4800000000000D+00  0.0000000000000D+00  0.0000000000000D+00
   150  1.4900000000000D+00  0.0000000000000D+00  0.0000000000000D+00
   151  1.5000000000000D+00  0.0000000000000D+00  0.0000000000000D+00
   152  1.5100000000000D+00  0.0000000000000D+00  0.0000000000000D+00
   153  1.5200000000000D+00  0.0000000000000D+00  0.0000000000000D+00
   154  1.5300000000000D+00  0.0000000000000D+00  0.0000000000000D+00
   155  1.5400000000000D+00  0.0000000000000D+00  0.0000000000000D+00
   156  1.5500000000000D+00  0.0000000000000D+00  0.0000000000000D+00
   157  1.5600000000000D+00  0.0000000000000D+00  0.0000000000000D+00
   158  1.5700000000000D+00  0.0000000000000D+00  0.0000000000000D+00
   159  1.5800000000000D+00  0.0000000000000D+00  0.0000000000000D+00
   160  1.5900000000000D+00  0.0000000000000D+00  0.0000000000000D+00
   161  1.6000000000000D+00  0.0000000000000D+00  0.0000000000000D+00
   162  1.6100000000000D+00  0.0000000000000D+00  0.0000000000000D+00
   163  1.6200000000000D+00  0.0000000000000D+00  0.0000000000000D+00
   164  1.6300000000000D+00  0.0000000000000D+00  0.0000000000000D+00
   165  1.6400000000000D+00  0.0000000000000D+00  0.0000000000000D+00
   166  1.6500000000000D+00  0.0000000000000D+00  0.0000000000000D+00
   167  1.6600000000000D+00  0.0000000000000D+00  0.0000000000000D+00
   168  1.6700000000000D+00  0.0000000000000D+00  0.0000000000000D+00
   169  1.6800000000000D+00  0.0000000000000D+00  0.0000000000000D+00
   170  1.6900000000000D+00  0.0000000000000D+00  0.0000000000000D+00
   171  1.7000000000000D+00  0.0000000000000D+00  0.0000000000000D+00
   172  1.7100000000000D+00  0.0000000000000D+00  0.0000000000000D+00
   173  1.7200000000000D+00  0.0000000000000D+00  0.0000000000000D+00
   174  1.7300000000000D+00  0.0000000000000D+00  0.0000000000000D+00
   175  1.7400000000000D+00  0.0000000000000D+00  0.0000000000000D+00
   176  1.7500000000000D+00  0.0000000000000D+00  0.0000000000000D+00
   177  1.7600000000000D+00  0.0000000000000D+00  0.0000000000000D+00
   178  1.7700000000000D+00  0.0000000000000D+00  0.0000000000000D+00
   179  1.7800000000000D+00  0.0000000000000D+00  0.0000000000000D+00
   180  1.7900000000000D+00  0.0000000000000D+00  0.0000000000000D+00
   181  1.8000000000000D+00  0.0000000000000D+00  0.0000000000000D+00
   182  1.8100000000000D+00  0.0000000000000D+00  0.0000000000000D+00
   183  1.8200000000000D+00  0.0000000000000D+00  0.0000000000000D+00
   184  1.8300000000000D+00  0.0000000000000D+00  0.0000000000000D+00
   185  1.8400000000000D+00  0.0000000000000D+00  0.0000000000000D+00
   186  1.8500000000000D+00  0.0000000000000D+00  0.0000000000000D+00
   187  1.8600000000000D+00  0.0000000000000D+00  0.0000000000000D+00
   188  1.8700000000000D+00  0.0000000000000D+00  0.0000000000000D+00
   189  1.8800000000000D+00  0.0000000000000D+00  0.0000000000000D+00
   190  1.8900000000000D+00  0.0000000000000D+00  0.0000000000000D+00
   191  1.9000000000000D+00  0.0000000000000D+00  0.0000000000000D+00
   192  1.9100000000000D+00  0.0000000000000D+00  0.0000000000000D+00
   193  1.9200000000000D+00  0.0000000000000D+00  0.0000000000000D+00
   194  1.9300000000000D+00  0.0000000000000D+00  0.0000000000000D+00
   195  1.9400000000000D+00  0.0000000000000D+00  0.0000000000000D+00
   196  1.9500000000000D+00  0.0000000000000D+00  0.0000000000000D+00
   197  1.9600000000000D+00  0.0000000000000D+00  0.0000000000000D+00
   198  1.9700000000000D+00  0.0000000000000D+00  0.0000000000000D+00
   199  1.9800000000000D+00  0.0000000000000D+00  0.0000000000000D+00
   200  1.9900000000000D+00  0.0000000000000D+00  0.0000000000000D+00
   201  2.0000000000000D+00  0.0000000000000D+00  0.0000000000000D+00
   202  2.0100000000000D+00  0.0000000000000D+00  0.0000000000000D+00
   203  2.0200000000000D+00  0.0000000000000D+00  0.0000000000000D+00
   204  2.0300000000000D+00  0.0000000000000D+00  0.0000000000000D+00
   205  2.0400000000000D+00  0.0000000000000D+00  0.0000000000000D+00
   206  2.0500000000000D+00  0.0000000000000D+00  0.0000000000000D+00
   207  2.0600000000000D+00  0.0000000000000D+00  0.0000000000000D+00
   208  2.0700000000000D+00  0.0000000000000D+00  0.0000000000000D+00
   209  2.0800000000000D+00  0.0000000000000D+00  0.0000000000000D+00
   210  2.0900000000000D+00  0.0000000000000D+00  0.0000000000000D+00
   211  2.1000000000000D+00  0.0000000000000D+00  0.0000000000000D+00
   212  2.1100000000000D+00  0.0000000000000D+00  0.0000000000000D+00
   213  2.1200000000000D+00  0.0000000000000D+00  0.0000000000000D+00
   214  2.1300000000000D+00  0.0000000000000D+00  0.0000000000000D+00
   215  2.1400000000000D+00  0.0000000000000D+00  0.0000000000000D+00
   216  2.1500000000000D+00  0.0000000000000D+00  0.0000000000000D+00
   217  2.1600000000000D+00  0.0000000000000D+00  0.0000000000000D+00
   218  2.1700000000000D+00  0.0000000000000D+00  0.0000000000000D+00
   219  2.1800000000000D+00  0.0000000000000D+00  0.0000000000000D+00
   220  2.1900000000000D+00  0.0000000000000D+00  0.0000000000000D+00
   221  2.2000000000000D+00  0.0000000000000D+00  0.0000000000000D+00
   222  2.2100000000000D+00  0.0000000000000D+00  0.0000000000000D+00
   223  2.2200000000000D+00  0.0000000000000D+00  0.0000000000000D+00
   224  2.2300000000000D+00  0.0000000000000D+00  0.0000000000000D+00
   225  2.2400000000000D+00  0.0000000000000D+00  0.0000000000000D+00
   226  2.2500000000000D+00  0.0000000000000D+00  0.0000000000000D+00
   227  2.2600000000000D+00  0.0000000000000D+00  0.0000000000000D+00
   228  2.2700000000000D+00  0.0000000000000D+00  0.0000000000000D+00
   229  2.2800000000000D+00  0.0000000000000D+00  0.0000000000000D+00
   230  2.2900000000000D+00  0.0000000000000D+00  0.0000000000000D+00
   231  2.3000000000000D+00  0.0000000000000D+00  0.0000000000000D+00
   232  2.3100000000000D+00  0.0000000000000D+00  0.0000000000000D+00
   233  2.3200000000000D+00  0.0000000000000D+00  0.0000000000000D+00
   234  2.3300000000000D+00  0.0000000000000D+00  0.0000000000000D+00
   235  2.3400000000000D+00  0.0000000000000D+00  0.0000000000000D+00
   236  2.3500000000000D+00  0.0000000000000D+00  0.0000000000000D+00
   237  2.3600000000000D+00  0.0000000000000D+00  0.0000000000000D+00
   238  2.3700000000000D+00  0.0000000000000D+00  0.0000000000000D+00
   239  2.3800000000000D+00  0.0000000000000D+00  0.0000000000000D+00
   240  2.3900000000000D+00  0.0000000000000D+00  0.0000000000000D+00
   241  2.4000000000000D+00  0.0000000000000D+00  0.0000000000000D+00
   242  2.4100000000000D+00  0.0000000000000D+00  0.0000000000000D+00
   243  2.4200000000000D+00  0.0000000000000D+00  0.0000000000000D+00
   244  2.4300000000000D+00  0.0000000000000D+00  0.0000000000000D+00
   245  2.4400000000000D+00  0.0000000000000D+00  0.0000000000000D+00
   246  2.4500000000000D+00  0.0000000000000D+00  0.0000000000000D+00
   247  2.4600000000000D+00  0.0000000000000D+00  0.0000000000000D+00
   248  2.4700000000000D+00  0.0000000000000D+00  0.0000000000000D+00
   249  2.4800000000000D+00  0.0000000000000D+00  0.0000000000000D+00
   250  2.4900000000000D+00  0.0000000000000D+00  0.0000000000000D+00
   251  2.5000000000000D+00  0.0000000000000D+00  0.0000000000000D+00
   252  2.5100000000000D+00  0.0000000000000D+00  0.0000000000000D+00
   253  2.5200000000000D+00  0.0000000000000D+00  0.0000000000000D+00
   254  2.5300000000000D+00  0.0000000000000D+00  0.0000000000000D+00
   255  2.5400000000000D+00  0.0000000000000D+00  0.0000000000000D+00
   256  2.5500000000000D+00  0.0000000000000D+00  0.0000000000000D+00
   257  2.5600000000000D+00  0.0000000000000D+00  0.0000000000000D+00
   258  2.5700000000000D+00  0.0000000000000D+00  0.0000000000000D+00
   259  2.5800000000000D+00  0.0000000000000D+00  0.0000000000000D+00
   260  2.5900000000000D+00  0.0000000000000D+00  0.0000000000000D+00
   261  2.6000000000000D+00  0.0000000000000D+00  0.0000000000000D+00
   262  2.6100000000000D+00  0.0000000000000D+00  0.0000000000000D+00
   263  2.6200000000000D+00  0.0000000000000D+00  0.0000000000000D+00
   264  2.6300000000000D+00  0.0000000000000D+00  0.0000000000000D+00
   265  2.6400000000000D+00  0.0000000000000D+00  0.0000000000000D+00
   266  2.6500000000000D+00  0.0000000000000D+00  0.0000000000000D+00
   267  2.6600000000000D+00  0.0000000000000D+00  0.0000000000000D+00
   268  2.6700000000000D+00  0.0000000000000D+00  0.0000000000000D+00
   269  2.6800000000000D+00  0.0000000000000D+00  0.0000000000000D+00
   270  2.6900000000000D+00  0.0000000000000D+00  0.0000000000000D+00
   271  2.7000000000000D+00  0.0000000000000D+00  0.0000000000000D+00
   272  2.7100000000000D+00  0.0000000000000D+00  0.0000000000000D+00
   273  2.7200000000000D+00  0.0000000000000D+00  0.0000000000000D+00
   274  2.7300000000000D+00  0.0000000000000D+00  0.0000000000000D+00
   275  2.7400000000000D+00  0.0000000000000D+00  0.0000000000000D+00
   276  2.7500000000000D+00  0.0000000000000D+00  0.0000000000000D+00
   277  2.7600000000000D+00  0.0000000000000D+00  0.0000000000000D+00
   278  2.7700000000000D+00  0.0000000000000D+00  0.0000000000000D+00
   279  2.7800000000000D+00  0.0000000000000D+00  0.0000000000000D+00
   280  2.7900000000000D+00  0.0000000000000D+00  0.0000000000000D+00
   281  2.8000000000000D+00  0.0000000000000D+00  0.0000000000000D+00
   282  2.8100000000000D+00  0.0000000000000D+00  0.0000000000000D+00
   283  2.8200000000000D+00  0.0000000000000D+00  0.0000000000000D+00
   284  2.8300000000000D+00  0.0000000000000D+00  0.0000000000000D+00
   285  2.8400000000000D+00  0.0000000000000D+00  0.0000000000000D+00
   286  2.8500000000000D+00  0.0000000000000D+00  0.0000000000000D+00
   287  2.8600000000000D+00  0.0000000000000D+00  0.0000000000000D+00
   288  2.8700000000000D+00  0.0000000000000D+00  0.0000000000000D+00
   289  2.8800000000000D+00  0.0000000000000D+00  0.0000000000000D+00
   290  2.8900000000000D+00  0.0000000000000D+00  0.0000000000000D+00
   291  2.9000000000000D+00  0.0000000000000D+00  0.0000000000000D+00
   292  2.9100000000000D+00  0.0000000000000D+00  0.0000000000000D+00
   293  2.9200000000000D+00  0.0000000000000D+00  0.0000000000000D+00
   294  2.9300000000000D+00  0.0000000000000D+00  0.0000000000000D+00
   295  2.9400000000000D+00  0.0000000000000D+00  0.0000000000000D+00
   296  2.9500000000000D+00  0.0000000000000D+00  0.0000000000000D+00
   297  2.9600000000000D+00  0.0000000000000D+00  0.0000000000000D+00
   298  2.9700000000000D+00  0.0000000000000D+00  0.0000000000000D+00
   299  2.9800000000000D+00  0.0000000000000D+00  0.0000000000000D+00
   300  2.9900000000000D+00  0.0000000000000D+00  0.0000000000000D+00
   301  3.0000000000000D+00  0.0000000000000D+00  0.0000000000000D+00
   302  3.0100000000000D+00  0.0000000000000D+00  0.0000000000000D+00
   303  3.0200000000000D+00  0.0000000000000D+00  0.0000000000000D+00
   304  3.0300000000000D+00  0.0000000000000D+00  0.0000000000000D+00
   305  3.0400000000000D+00  0.0000000000000D+00  0.0000000000000D+00
   306  3.0500000000000D+00  0.0000000000000D+00  0.0000000000000D+00
   307  3.0600000000000D+00  0.0000000000000D+00  0.0000000000000D+00
   308  3.0700000000000D+00  0.0000000000000D+00  0.0000000000000D+00
   309  3.0800000000000D+00  0.0000000000000D+00  0.0000000000000D+00
   310  3.0900000000000D+00  0.0000000000000D+00  0.0000000000000D+00
   311  3.1000000000000D+00  0.0000000000000D+00  0.0000000000000D+00
   312  3.1100000000000D+00  0.0000000000000D+00  0.0000000000000D+00
   313  3.1200000000000D+00  0.0000000000000D+00  0.0000000000000D+00
   314  3.1300000000000D+00  0.0000000000000D+00  0.0000000000000D+00
   315  3.1400000000000D+00  0.0000000000000D+00  0.0000000000000D+00
   316  3.1500000000000D+00  0.0000000000000D+00  0.0000000000000D+00
   317  3.1600000000000D+00  0.0000000000000D+00  0.0000000000000D+00
   318  3.1700000000000D+00  0.0000000000000D+00  0.0000000000000D+00
   319  3.1800000000000D+00  0.0000000000000D+00  0.0000000000000D+00
   320  3.1900000000000D+00  0.0000000000000D+00  0.0000000000000D+00
   321  3.2000000000000D+00  0.0000000000000D+00  0.0000000000000D+00
   322  3.2100000000000D+00  0.0000000000000D+00  0.0000000000000D+00
   323  3.2200000000000D+00  0.0000000000000D+00  0.0000000000000D+00
   324  3.2300000000000D+00  0.0000000000000D+00  0.0000000000000D+00
   325  3.2400000000000D+00  0.0000000000000D+00  0.0000000000000D+00
   326  3.2500000000000D+00  0.0000000000000D+00  0.0000000000000D+00
   327  3.2600000000000D+00  0.0000000000000D+00  0.0000000000000D+00
   328  3.2700000000000D+00  0.0000000000000D+00  0.0000000000000D+00
   329  3.2800000000000D+00  0.0000000000000D+00  0.0000000000000D+00
   330  3.2900000000000D+00  0.0000000000000D+00  0.0000000000000D+00
   331  3.3000000000000D+00  0.0000000000000D+00  0.0000000000000D+00
   332  3.3100000000000D+00  0.0000000000000D+00  0.0000000000000D+00
   333  3.3200000000000D+00  0.0000000000000D+00  0.0000000000000D+00
   334  3.3300000000000D+00  0.0000000000000D+00  0.0000000000000D+00
   335  3.3400000000000D+00  0.0000000000000D+00  0.0000000000000D+00
   336  3.3500000000000D+00  0.0000000000000D+00  0.0000000000000D+00
   337  3.3600000000000D+00  0.0000000000000D+00  0.0000000000000D+00
   338  3.3700000000000D+00  0.0000000000000D+00  0.0000000000000D+00
   339  3.3800000000000D+00  0.0000000000000D+00  0.0000000000000D+00
   340  3.3900000000000D+00  0.0000000000000D+00  0.0000000000000D+00
   341  3.4000000000000D+00  0.0000000000000D+00  0.0000000000000D+00
   342  3.4100000000000D+00  0.0000000000000D+00  0.0000000000000D+00
   343  3.4200000000000D+00  0.0000000000000D+00  0.0000000000000D+00
   344  3.4300000000000D+00  0.0000000000000D+00  0.0000000000000D+00
   345  3.4400000000000D+00  0.0000000000000D+00  0.0000000000000D+00
   346  3.4500000000000D+00  0.0000000000000D+00  0.0000000000000D+00
   347  3.4600000000000D+00  0.0000000000000D+00  0.0000000000000D+00
   348  3.4700000000000D+00  0.0000000000000D+00  0.0000000000000D+00
   349  3.4800000000000D+00  0.0000000000000D+00  0.0000000000000D+00
   350  3.4900000000000D+00  0.0000000000000D+00  0.0000000000000D+00
   351  3.5000000000000D+00  0.0000000000000D+00  0.0000000000000D+00
   352  3.5100000000000D+00  0.0000000000000D+00  0.0000000000000D+00
   353  3.5200000000000D+00  0.0000000000000D+00  0.0000000000000D+00
   354  3.5300000000000D+00  0.0000000000000D+00  0.0000000000000D+00
   355  3.5400000000000D+00  0.0000000000000D+00  0.0000000000000D+00
   356  3.5500000000000D+00  0.0000000000000D+00  0.0000000000000D+00
   357  3.5600000000000D+00  0.0000000000000D+00  0.0000000000000D+00
   358  3.5700000000000D+00  0.0000000000000D+00  0.0000000000000D+00
   359  3.5800000000000D+00  0.0000000000000D+00  0.0000000000000D+00
   360  3.5900000000000D+00  0.0000000000000D+00  0.0000000000000D+00
   361  3.6000000000000D+00  0.0000000000000D+00  0.0000000000000D+00
   362  3.6100000000000D+00  0.0000000000000D+00  0.0000000000000D+00
   363  3.6200000000000D+00  0.0000000000000D+00  0.0000000000000D+00
   364  3.6300000000000D+00  0.0000000000000D+00  0.0000000000000D+00
   365  3.6400000000000D+00  0.0000000000000D+00  0.0000000000000D+00
   366  3.6500000000000D+00  0.0000000000000D+00  0.0000000000000D+00
   367  3.6600000000000D+00  0.0000000000000D+00  0.0000000000000D+00
   368  3.6700000000000D+00  0.0000000000000D+00  0.0000000000000D+00
   369  3.6800000000000D+00  0.0000000000000D+00  0.0000000000000D+00
   370  3.6900000000000D+00  0.0000000000000D+00  0.0000000000000D+00
   371  3.7000000000000D+00  0.0000000000000D+00  0.0000000000000D+00
   372  3.7100000000000D+00  0.0000000000000D+00  0.0000000000000D+00
   373  3.7200000000000D+00  0.0000000000000D+00  0.0000000000000D+00
   374  3.7300000000000D+00  0.0000000000000D+00  0.0000000000000D+00
   375  3.7400000000000D+00  0.0000000000000D+00  0.0000000000000D+00
   376  3.7500000000000D+00  0.0000000000000D+00  0.0000000000000D+00
   377  3.7600000000000D+00  0.0000000000000D+00  0.0000000000000D+00
   378  3.7700000000000D+00  0.0000000000000D+00  0.0000000000000D+00
   379  3.7800000000000D+00  0.0000000000000D+00  0.0000000000000D+00
   380  3.7900000000000D+00  0.0000000000000D+00  0.0000000000000D+00
   381  3.8000000000000D+00  0.0000000000000D+00  0.0000000000000D+00
   382  3.8100000000000D+00  0.0000000000000D+00  0.0000000000000D+00
   383  3.8200000000000D+00  0.0000000000000D+00  0.0000000000000D+00
   384  3.8300000000000D+00  0.0000000000000D+00  0.0000000000000D+00
   385  3.8400000000000D+00  0.0000000000000D+00  0.0000000000000D+00
   386  3.8500000000000D+00  0.0000000000000D+00  0.0000000000000D+00
   387  3.8600000000000D+00  0.0000000000000D+00  0.0000000000000D+00
   388  3.8700000000000D+00  0.0000000000000D+00  0.0000000000000D+00
   389  3.8800000000000D+00  0.0000000000000D+00  0.0000000000000D+00
   390  3.8900000000000D+00  0.0000000000000D+00  0.0000000000000D+00
   391  3.9000000000000D+00  0.0000000000000D+00  0.0000000000000D+00
   392  3.9100000000000D+00  0.0000000000000D+00  0.0000000000000D+00
   393  3.9200000000000D+00  0.0000000000000D+00  0.0000000000000D+00
   394  3.9300000000000D+00  0.0000000000000D+00  0.0000000000000D+00
   395  3.9400000000000D+00  0.0000000000000D+00  0.0000000000000D+00
   396  3.9500000000000D+00  0.0000000000000D+00  0.0000000000000D+00
   397  3.9600000000000D+00  0.0000000000000D+00  0.0000000000000D+00
   398  3.9700000000000D+00  0.0000000000000D+00  0.0000000000000D+00
   399  3.9800000000000D+00  0.0000000000000D+00  0.0000000000000D+00
   400  3.9900000000000D+00  0.0000000000000D+00  0.0000000000000D+00
   401  4.0000000000000D+00  0.0000000000000D+00  0.0000000000000D+00
   402  4.0100000000000D+00  0.0000000000000D+00  0.0000000000000D+00
   403  4.0200000000000D+00  0.0000000000000D+00  0.0000000000000D+00
   404  4.0300000000000D+00  0.0000000000000D+00  0.0000000000000D+00
   405  4.0400000000000D+00  0.0000000000000D+00  0.0000000000000D+00
   406  4.0500000000000D+00  0.0000000000000D+00  0.0000000000000D+00
   407  4.0600000000000D+00  0.0000000000000D+00  0.0000000000000D+00
   408  4.0700000000000D+00  0.0000000000000D+00  0.0000000000000D+00
   409  4.0800000000000D+00  0.0000000000000D+00  0.0000000000000D+00
   410  4.0900000000000D+00  0.0000000000000D+00  0.0000000000000D+00
   411  4.1000000000000D+00  0.0000000000000D+00  0.0000000000000D+00
   412  4.1100000000000D+00  0.0000000000000D+00  0.0000000000000D+00
   413  4.1200000000000D+00  0.0000000000000D+00  0.0000000000000D+00
   414  4.1300000000000D+00  0.0000000000000D+00  0.0000000000000D+00
   415  4.1400000000000D+00  0.0000000000000D+00  0.0000000000000D+00
   416  4.1500000000000D+00  0.0000000000000D+00  0.0000000000000D+00
   417  4.1600000000000D+00  0.0000000000000D+00  0.0000000000000D+00
   418  4.1700000000000D+00  0.0000000000000D+00  0.0000000000000D+00
   419  4.1800000000000D+00  0.0000000000000D+00  0.0000000000000D+00
   420  4.1900000000000D+00  0.0000000000000D+00  0.0000000000000D+00
   421  4.2000000000000D+00  0.0000000000000D+00  0.0000000000000D+00
   422  4.2100000000000D+00  0.0000000000000D+00  0.0000000000000D+00