Zn    ONCVPSP-3.3.0  r_core=   1.35823   1.66358   1.85211
     30.0000     20.0000      220408    zatom,zion,pspd
     8       2   2     4   600     0    pspcod,pspxc,lmax,lloc,mmax,r2well
  5.99000000  0.00000000  0.00000000    rchrg fchrg qchrg
     2     2     2     0     0    nproj
     1     1           extension_switch
   0                         2.8585507635486D+00 -1.4451323487787D+00
     1  0.0000000000000D+00  7.4376013126098D-09  7.3644981779530D-10
     2  1.0000000000000D-02  8.8256014893889D-02  2.9831013768441D-02
     3  2.0000000000000D-02  1.7629813557020D-01  5.9681110833498D-02
     4  3.0000000000000D-02  2.6391051234918D-01  8.9568868582386D-02
     5  4.0000000000000D-02  3.5087346159220D-01  1.1951186167238D-01
     6  5.0000000000000D-02  4.3696173916029D-01  1.4952618319291D-01
     7  6.0000000000000D-02  5.2194303691302D-01  1.7962599231844D-01
     8  7.0000000000000D-02  6.0557676759333D-01  2.0982309639260D-01
     9  8.0000000000000D-02  6.8761319600605D-01  2.4012657464776D-01
    10  9.0000000000000D-02  7.6779296544081D-01  2.7054244987548D-01
    11  1.0000000000000D-01  8.4584705802715D-01  3.0107341334301D-01
    12  1.1000000000000D-01  9.2149721638893D-01  3.3171860712151D-01
    13  1.2000000000000D-01  9.9445684185673D-01  3.6247346677986D-01
    14  1.3000000000000D-01  1.0644323718948D+00  3.9332962613022D-01
    15  1.4000000000000D-01  1.1311251266056D+00  4.2427488441723D-01
    16  1.5000000000000D-01  1.1942336015006D+00  4.5529323505166D-01
    17  1.6000000000000D-01  1.2534561714810D+00  4.8636495372978D-01
    18  1.7000000000000D-01  1.3084941594494D+00  5.1746674258113D-01
    19  1.8000000000000D-01  1.3590552124666D+00  5.4857192587650D-01
    20  1.9000000000000D-01  1.4048569191245D+00  5.7965069182938D-01
    21  2.0000000000000D-01  1.4456305940691D+00  6.1067037416143D-01
    22  2.1000000000000D-01  1.4811251495657D+00  6.4159576639330D-01
    23  2.2000000000000D-01  1.5111109698148D+00  6.7238946128396D-01
    24  2.3000000000000D-01  1.5353837015112D+00  7.0301220748414D-01
    25  2.4000000000000D-01  1.5537678739646D+00  7.3342327530216D-01
    26  2.5000000000000D-01  1.5661202639828D+00  7.6358082350443D-01
    27  2.6000000000000D-01  1.5723329246338D+00  7.9344225928797D-01
    28  2.7000000000000D-01  1.5723358028762D+00  8.2296458396229D-01
    29  2.8000000000000D-01  1.5660988787500D+00  8.5210471745192D-01
    30  2.9000000000000D-01  1.5536337681921D+00  8.8081979546549D-01
    31  3.0000000000000D-01  1.5349947423752D+00  9.0906743405327D-01
    32  3.1000000000000D-01  1.5102791285153D+00  9.3680595727201D-01
    33  3.2000000000000D-01  1.4796270700938D+00  9.6399458476827D-01
    34  3.3000000000000D-01  1.4432206380821D+00  9.9059357725353D-01
    35  3.4000000000000D-01  1.4012822987420D+00  1.0165643390472D+00
    36  3.5000000000000D-01  1.3540727575660D+00  1.0418694780781D+00
    37  3.6000000000000D-01  1.3018882126059D+00  1.0664728249302D+00
    38  3.7000000000000D-01  1.2450570634831D+00  1.0903394136690D+00
    39  3.8000000000000D-01  1.1839361344784D+00  1.1134354282539D+00
    40  3.9000000000000D-01  1.1189064809737D+00  1.1357281193155D+00
    41  4.0000000000000D-01  1.0503688579010D+00  1.1571856969163D+00
    42  4.1000000000000D-01  9.7873893651387D-01  1.1777772056111D+00
    43  4.2000000000000D-01  9.0444236155085D-01  1.1974723886482D+00
    44  4.3000000000000D-01  8.2790974455494D-01  1.2162415485053D+00
    45  4.4000000000000D-01  7.4957169065352D-01  1.2340554111087D+00
    46  4.5000000000000D-01  6.6985395543725D-01  1.2508850010507D+00
    47  4.6000000000000D-01  5.8917282570687D-01  1.2667015348869D+00
    48  4.7000000000000D-01  5.0793081283492D-01  1.2814763391714D+00
    49  4.8000000000000D-01  4.2651274042028D-01  1.2951807992825D+00
    50  4.9000000000000D-01  3.4528229894599D-01  1.3077863443142D+00
    51  5.0000000000000D-01  2.6457912948833D-01  1.3192644723821D+00
    52  5.1000000000000D-01  1.8471648639700D-01  1.3295868196323D+00
    53  5.2000000000000D-01  1.0597951555394D-01  1.3387252750757D+00
    54  5.3000000000000D-01  2.8624170622294D-02  1.3466521421277D+00
    55  5.4000000000000D-01 -4.7123225048467D-02  1.3533403464350D+00
    56  5.5000000000000D-01 -1.2106577817720D-01  1.3587636882614D+00
    57  5.6000000000000D-01 -1.9303520908996D-01  1.3628971364021D+00
    58  5.7000000000000D-01 -2.6289045553828D-01  1.3657171593409D+00
    59  5.8000000000000D-01 -3.3051574679570D-01  1.3672020881846D+00
    60  5.9000000000000D-01 -3.9581821042216D-01  1.3673325048358D+00
    61  6.0000000000000D-01 -4.5872508500180D-01  1.3660916479222D+00
    62  6.1000000000000D-01 -5.1918062139113D-01  1.3634658282171D+00
    63  6.2000000000000D-01 -5.7714276226866D-01  1.3594448446838D+00
    64  6.3000000000000D-01 -6.3257969494065D-01  1.3540223918634D+00
    65  6.4000000000000D-01 -6.8546637522212D-01  1.3471964491304D+00
    66  6.5000000000000D-01 -7.3578112075378D-01  1.3389696423576D+00
    67  6.6000000000000D-01 -7.8350237024799D-01  1.3293495687703D+00
    68  6.7000000000000D-01 -8.2860570097367D-01  1.3183490762302D+00
    69  6.8000000000000D-01 -8.7106119029168D-01  1.3059864888561D+00
    70  6.9000000000000D-01 -9.1083119844147D-01  1.2922857717652D+00
    71  7.0000000000000D-01 -9.4786863918363D-01  1.2772766287686D+00
    72  7.1000000000000D-01 -9.8211579268184D-01  1.2609945280717D+00
    73  7.2000000000000D-01 -1.0135037011853D+00  1.2434806523881D+00
    74  7.3000000000000D-01 -1.0419521732781D+00  1.2247817713373D+00
    75  7.4000000000000D-01 -1.0673704067971D+00  1.2049500355366D+00
    76  7.5000000000000D-01 -1.0896582244412D+00  1.1840426933877D+00
    77  7.6000000000000D-01 -1.1087079000295D+00  1.1621217331455D+00
    78  7.7000000000000D-01 -1.1244065375561D+00  1.1392534544337D+00
    79  7.8000000000000D-01 -1.1366389501591D+00  1.1155079748740D+00
    80  7.9000000000000D-01 -1.1452909721685D+00  1.0909586789085D+00
    81  8.0000000000000D-01 -1.1502531248587D+00  1.0656816171789D+00
    82  8.1000000000000D-01 -1.1514245457516D+00  1.0397548659481D+00
    83  8.2000000000000D-01 -1.1487170825486D+00  1.0132578569946D+00
    84  8.3000000000000D-01 -1.1420594462661D+00  9.8627068913711D-01
    85  8.4000000000000D-01 -1.1314013140792D+00  9.5887343305674D-01
    86  8.5000000000000D-01 -1.1167172708725D+00  9.3114544134848D-01
    87  8.6000000000000D-01 -1.0980104796342D+00  9.0316467575239D-01
    88  8.7000000000000D-01 -1.0753159746036D+00  8.7500706328312D-01
    89  8.8000000000000D-01 -1.0487034774557D+00  8.4674589249561D-01
    90  8.9000000000000D-01 -1.0182796456561D+00  8.1845126040507D-01
    91  9.0000000000000D-01 -9.8418967327851D-01  7.9018957963360D-01
    92  9.1000000000000D-01 -9.4661817781495D-01  7.6202315420282D-01
    93  9.2000000000000D-01 -9.0578932155332D-01  7.3400983105574D-01
    94  9.3000000000000D-01 -8.6196613261477D-01  7.0620273289920D-01
    95  9.4000000000000D-01 -8.1544900838580D-01  6.7865007634217D-01
    96  9.5000000000000D-01 -7.6657340244712D-01  6.5139507759971D-01
    97  9.6000000000000D-01 -7.1570671475588D-01  6.2447594627659D-01
    98  9.7000000000000D-01 -6.6324442358441D-01  5.9792596595389D-01
    99  9.8000000000000D-01 -6.0960551536968D-01  5.7177365859011D-01
   100  9.9000000000000D-01 -5.5522728614148D-01  5.4604302801871D-01
   101  1.0000000000000D+00 -5.0055960372282D-01  5.2075387625345D-01
   102  1.0100000000000D+00 -4.4605873389363D-01  4.9592218485772D-01
   103  1.0200000000000D+00 -3.9218084567370D-01  4.7156055234010D-01
   104  1.0300000000000D+00 -3.3937532044581D-01  4.4767867744321D-01
   105  1.0400000000000D+00 -2.8807799650388D-01  4.2428387731279D-01
   106  1.0500000000000D+00 -2.3870448476921D-01  4.0138162891808D-01
   107  1.0600000000000D+00 -1.9164369276900D-01  3.7897612166133D-01
   108  1.0700000000000D+00 -1.4725169193793D-01  3.5707080903265D-01
   109  1.0800000000000D+00 -1.0584605878870D-01  3.3566894727319D-01
   110  1.0900000000000D+00 -6.7700811665266D-02  3.1477410949003D-01
   111  1.1000000000000D+00 -3.3042056744094D-02  2.9439066414457D-01
   112  1.1100000000000D+00 -2.0444409663728D-03  2.7452420791799D-01
   113  1.1200000000000D+00  2.5171503843702D-02  2.5518194392930D-01
   114  1.1300000000000D+00  4.8541060939415D-02  2.3637299773317D-01
   115  1.1400000000000D+00  6.8056023887252D-02  2.1810866473908D-01
   116  1.1500000000000D+00  8.3764361401974D-02  2.0040258449361D-01
   117  1.1600000000000D+00  9.5768846478891D-02  1.8327083889712D-01
   118  1.1700000000000D+00  1.0422466781410D-01  1.6673197331644D-01
   119  1.1800000000000D+00  1.0933605697568D-01  1.5080694081362D-01
   120  1.1900000000000D+00  1.1135199334664D-01  1.3551897208006D-01
   121  1.2000000000000D+00  1.1056106498959D-01  1.2089337504330D-01
   122  1.2100000000000D+00  1.0728558179131D-01  1.0695726967537D-01
   123  1.2200000000000D+00  1.0187505234645D-01  9.3739264824941D-02
   124  1.2300000000000D+00  9.4699155701372D-02  8.1269085653886D-02
   125  1.2400000000000D+00  8.6140345863709D-02  6.9577160940953D-02
   126  1.2500000000000D+00  7.6586235094574D-02  5.8694180210450D-02
   127  1.2600000000000D+00  6.6421914254297D-02  4.8650631917233D-02
   128  1.2700000000000D+00  5.6022408503436D-02  3.9476340610556D-02
   129  1.2800000000000D+00  4.5745063422890D-02  3.1199958585762D-02
   130  1.2900000000000D+00  3.5922741848307D-02  2.3848535259992D-02
   131  1.3000000000000D+00  2.6861657060972D-02  1.7447738436365D-02
   132  1.3100000000000D+00  1.8819190155261D-02  1.2018941531164D-02
   133  1.3200000000000D+00  1.2011563269383D-02  7.5830163386424D-03
   134  1.3300000000000D+00  6.6234318749291D-03  4.1425041370518D-03
   135  1.3400000000000D+00  2.8504545694931D-03  1.7459627574138D-03
   136  1.3500000000000D+00  8.2319823285983D-04  4.5260503949391D-04
   137  1.3600000000000D+00  9.3786023997522D-05  1.2297157230497D-07
   138  1.3700000000000D+00 -1.9685895111599D-05 -2.9632972977863D-05
   139  1.3800000000000D+00  1.3967241877558D-05  1.5497255960324D-05
   140  1.3900000000000D+00  2.8877854776194D-06  2.8874446994142D-06
   141  1.4000000000000D+00 -2.0787131896728D-06 -2.8311541630288D-06
   142  1.4100000000000D+00 -2.1596100221041D-07 -5.0845969710262D-08
   143  1.4200000000000D+00 -3.3271346113626D-07 -7.8334228837523D-08
   144  1.4300000000000D+00  0.0000000000000D+00  0.0000000000000D+00
   145  1.4400000000000D+00  0.0000000000000D+00  0.0000000000000D+00
   146  1.4500000000000D+00  0.0000000000000D+00  0.0000000000000D+00
   147  1.4600000000000D+00  0.0000000000000D+00  0.0000000000000D+00
   148  1.4700000000000D+00  0.0000000000000D+00  0.0000000000000D+00
   149  1.4800000000000D+00  0.0000000000000D+00  0.0000000000000D+00
   150  1.4900000000000D+00  0.0000000000000D+00  0.0000000000000D+00
   151  1.5000000000000D+00  0.0000000000000D+00  0.0000000000000D+00
   152  1.5100000000000D+00  0.0000000000000D+00  0.0000000000000D+00
   153  1.5200000000000D+00  0.0000000000000D+00  0.0000000000000D+00
   154  1.5300000000000D+00  0.0000000000000D+00  0.0000000000000D+00
   155  1.5400000000000D+00  0.0000000000000D+00  0.0000000000000D+00
   156  1.5500000000000D+00  0.0000000000000D+00  0.0000000000000D+00
   157  1.5600000000000D+00  0.0000000000000D+00  0.0000000000000D+00
   158  1.5700000000000D+00  0.0000000000000D+00  0.0000000000000D+00
   159  1.5800000000000D+00  0.0000000000000D+00  0.0000000000000D+00
   160  1.5900000000000D+00  0.0000000000000D+00  0.0000000000000D+00
   161  1.6000000000000D+00  0.0000000000000D+00  0.0000000000000D+00
   162  1.6100000000000D+00  0.0000000000000D+00  0.0000000000000D+00
   163  1.6200000000000D+00  0.0000000000000D+00  0.0000000000000D+00
   164  1.6300000000000D+00  0.0000000000000D+00  0.0000000000000D+00
   165  1.6400000000000D+00  0.0000000000000D+00  0.0000000000000D+00
   166  1.6500000000000D+00  0.0000000000000D+00  0.0000000000000D+00
   167  1.6600000000000D+00  0.0000000000000D+00  0.0000000000000D+00
   168  1.6700000000000D+00  0.0000000000000D+00  0.0000000000000D+00
   169  1.6800000000000D+00  0.0000000000000D+00  0.0000000000000D+00
   170  1.6900000000000D+00  0.0000000000000D+00  0.0000000000000D+00
   171  1.7000000000000D+00  0.0000000000000D+00  0.0000000000000D+00
   172  1.7100000000000D+00  0.0000000000000D+00  0.0000000000000D+00
   173  1.7200000000000D+00  0.0000000000000D+00  0.0000000000000D+00
   174  1.7300000000000D+00  0.0000000000000D+00  0.0000000000000D+00
   175  1.7400000000000D+00  0.0000000000000D+00  0.0000000000000D+00
   176  1.7500000000000D+00  0.0000000000000D+00  0.0000000000000D+00
   177  1.7600000000000D+00  0.0000000000000D+00  0.0000000000000D+00
   178  1.7700000000000D+00  0.0000000000000D+00  0.0000000000000D+00
   179  1.7800000000000D+00  0.0000000000000D+00  0.0000000000000D+00
   180  1.7900000000000D+00  0.0000000000000D+00  0.0000000000000D+00
   181  1.8000000000000D+00  0.0000000000000D+00  0.0000000000000D+00
   182  1.8100000000000D+00  0.0000000000000D+00  0.0000000000000D+00
   183  1.8200000000000D+00  0.0000000000000D+00  0.0000000000000D+00
   184  1.8300000000000D+00  0.0000000000000D+00  0.0000000000000D+00
   185  1.8400000000000D+00  0.0000000000000D+00  0.0000000000000D+00
   186  1.8500000000000D+00  0.0000000000000D+00  0.0000000000000D+00
   187  1.8600000000000D+00  0.0000000000000D+00  0.0000000000000D+00
   188  1.8700000000000D+00  0.0000000000000D+00  0.0000000000000D+00
   189  1.8800000000000D+00  0.0000000000000D+00  0.0000000000000D+00
   190  1.8900000000000D+00  0.0000000000000D+00  0.0000000000000D+00
   191  1.9000000000000D+00  0.0000000000000D+00  0.0000000000000D+00
   192  1.9100000000000D+00  0.0000000000000D+00  0.0000000000000D+00
   193  1.9200000000000D+00  0.0000000000000D+00  0.0000000000000D+00
   194  1.9300000000000D+00  0.0000000000000D+00  0.0000000000000D+00
   195  1.9400000000000D+00  0.0000000000000D+00  0.0000000000000D+00
   196  1.9500000000000D+00  0.0000000000000D+00  0.0000000000000D+00
   197  1.9600000000000D+00  0.0000000000000D+00  0.0000000000000D+00
   198  1.9700000000000D+00  0.0000000000000D+00  0.0000000000000D+00
   199  1.9800000000000D+00  0.0000000000000D+00  0.0000000000000D+00
   200  1.9900000000000D+00  0.0000000000000D+00  0.0000000000000D+00
   201  2.0000000000000D+00  0.0000000000000D+00  0.0000000000000D+00
   202  2.0100000000000D+00  0.0000000000000D+00  0.0000000000000D+00
   203  2.0200000000000D+00  0.0000000000000D+00  0.0000000000000D+00
   204  2.0300000000000D+00  0.0000000000000D+00  0.0000000000000D+00
   205  2.0400000000000D+00  0.0000000000000D+00  0.0000000000000D+00
   206  2.0500000000000D+00  0.0000000000000D+00  0.0000000000000D+00
   207  2.0600000000000D+00  0.0000000000000D+00  0.0000000000000D+00
   208  2.0700000000000D+00  0.0000000000000D+00  0.0000000000000D+00
   209  2.0800000000000D+00  0.0000000000000D+00  0.0000000000000D+00
   210  2.0900000000000D+00  0.0000000000000D+00  0.0000000000000D+00
   211  2.1000000000000D+00  0.0000000000000D+00  0.0000000000000D+00
   212  2.1100000000000D+00  0.0000000000000D+00  0.0000000000000D+00
   213  2.1200000000000D+00  0.0000000000000D+00  0.0000000000000D+00
   214  2.1300000000000D+00  0.0000000000000D+00  0.0000000000000D+00
   215  2.1400000000000D+00  0.0000000000000D+00  0.0000000000000D+00
   216  2.1500000000000D+00  0.0000000000000D+00  0.0000000000000D+00
   217  2.1600000000000D+00  0.0000000000000D+00  0.0000000000000D+00
   218  2.1700000000000D+00  0.0000000000000D+00  0.0000000000000D+00
   219  2.1800000000000D+00  0.0000000000000D+00  0.0000000000000D+00
   220  2.1900000000000D+00  0.0000000000000D+00  0.0000000000000D+00
   221  2.2000000000000D+00  0.0000000000000D+00  0.0000000000000D+00
   222  2.2100000000000D+00  0.0000000000000D+00  0.0000000000000D+00
   223  2.2200000000000D+00  0.0000000000000D+00  0.0000000000000D+00
   224  2.2300000000000D+00  0.0000000000000D+00  0.0000000000000D+00
   225  2.2400000000000D+00  0.0000000000000D+00  0.0000000000000D+00
   226  2.2500000000000D+00  0.0000000000000D+00  0.0000000000000D+00
   227  2.2600000000000D+00  0.0000000000000D+00  0.0000000000000D+00
   228  2.2700000000000D+00  0.0000000000000D+00  0.0000000000000D+00
   229  2.2800000000000D+00  0.0000000000000D+00  0.0000000000000D+00
   230  2.2900000000000D+00  0.0000000000000D+00  0.0000000000000D+00
   231  2.3000000000000D+00  0.0000000000000D+00  0.0000000000000D+00
   232  2.3100000000000D+00  0.0000000000000D+00  0.0000000000000D+00
   233  2.3200000000000D+00  0.0000000000000D+00  0.0000000000000D+00
   234  2.3300000000000D+00  0.0000000000000D+00  0.0000000000000D+00
   235  2.3400000000000D+00  0.0000000000000D+00  0.0000000000000D+00
   236  2.3500000000000D+00  0.0000000000000D+00  0.0000000000000D+00
   237  2.3600000000000D+00  0.0000000000000D+00  0.0000000000000D+00
   238  2.3700000000000D+00  0.0000000000000D+00  0.0000000000000D+00
   239  2.3800000000000D+00  0.0000000000000D+00  0.0000000000000D+00
   240  2.3900000000000D+00  0.0000000000000D+00  0.0000000000000D+00
   241  2.4000000000000D+00  0.0000000000000D+00  0.0000000000000D+00
   242  2.4100000000000D+00  0.0000000000000D+00  0.0000000000000D+00
   243  2.4200000000000D+00  0.0000000000000D+00  0.0000000000000D+00
   244  2.4300000000000D+00  0.0000000000000D+00  0.0000000000000D+00
   245  2.4400000000000D+00  0.0000000000000D+00  0.0000000000000D+00
   246  2.4500000000000D+00  0.0000000000000D+00  0.0000000000000D+00
   247  2.4600000000000D+00  0.0000000000000D+00  0.0000000000000D+00
   248  2.4700000000000D+00  0.0000000000000D+00  0.0000000000000D+00
   249  2.4800000000000D+00  0.0000000000000D+00  0.0000000000000D+00
   250  2.4900000000000D+00  0.0000000000000D+00  0.0000000000000D+00
   251  2.5000000000000D+00  0.0000000000000D+00  0.0000000000000D+00
   252  2.5100000000000D+00  0.0000000000000D+00  0.0000000000000D+00
   253  2.5200000000000D+00  0.0000000000000D+00  0.0000000000000D+00
   254  2.5300000000000D+00  0.0000000000000D+00  0.0000000000000D+00
   255  2.5400000000000D+00  0.0000000000000D+00  0.0000000000000D+00
   256  2.5500000000000D+00  0.0000000000000D+00  0.0000000000000D+00
   257  2.5600000000000D+00  0.0000000000000D+00  0.0000000000000D+00
   258  2.5700000000000D+00  0.0000000000000D+00  0.0000000000000D+00
   259  2.5800000000000D+00  0.0000000000000D+00  0.0000000000000D+00
   260  2.5900000000000D+00  0.0000000000000D+00  0.0000000000000D+00
   261  2.6000000000000D+00  0.0000000000000D+00  0.0000000000000D+00
   262  2.6100000000000D+00  0.0000000000000D+00  0.0000000000000D+00
   263  2.6200000000000D+00  0.0000000000000D+00  0.0000000000000D+00
   264  2.6300000000000D+00  0.0000000000000D+00  0.0000000000000D+00
   265  2.6400000000000D+00  0.0000000000000D+00  0.0000000000000D+00
   266  2.6500000000000D+00  0.0000000000000D+00  0.0000000000000D+00
   267  2.6600000000000D+00  0.0000000000000D+00  0.0000000000000D+00
   268  2.6700000000000D+00  0.0000000000000D+00  0.0000000000000D+00
   269  2.6800000000000D+00  0.0000000000000D+00  0.0000000000000D+00
   270  2.6900000000000D+00  0.0000000000000D+00  0.0000000000000D+00
   271  2.7000000000000D+00  0.0000000000000D+00  0.0000000000000D+00
   272  2.7100000000000D+00  0.0000000000000D+00  0.0000000000000D+00
   273  2.7200000000000D+00  0.0000000000000D+00  0.0000000000000D+00
   274  2.7300000000000D+00  0.0000000000000D+00  0.0000000000000D+00
   275  2.7400000000000D+00  0.0000000000000D+00  0.0000000000000D+00
   276  2.7500000000000D+00  0.0000000000000D+00  0.0000000000000D+00
   277  2.7600000000000D+00  0.0000000000000D+00  0.0000000000000D+00
   278  2.7700000000000D+00  0.0000000000000D+00  0.0000000000000D+00
   279  2.7800000000000D+00  0.0000000000000D+00  0.0000000000000D+00
   280  2.7900000000000D+00  0.0000000000000D+00  0.0000000000000D+00
   281  2.8000000000000D+00  0.0000000000000D+00  0.0000000000000D+00
   282  2.8100000000000D+00  0.0000000000000D+00  0.0000000000000D+00
   283  2.8200000000000D+00  0.0000000000000D+00  0.0000000000000D+00
   284  2.8300000000000D+00  0.0000000000000D+00  0.0000000000000D+00
   285  2.8400000000000D+00  0.0000000000000D+00  0.0000000000000D+00
   286  2.8500000000000D+00  0.0000000000000D+00  0.0000000000000D+00
   287  2.8600000000000D+00  0.0000000000000D+00  0.0000000000000D+00
   288  2.8700000000000D+00  0.0000000000000D+00  0.0000000000000D+00
   289  2.8800000000000D+00  0.0000000000000D+00  0.0000000000000D+00
   290  2.8900000000000D+00  0.0000000000000D+00  0.0000000000000D+00
   291  2.9000000000000D+00  0.0000000000000D+00  0.0000000000000D+00
   292  2.9100000000000D+00  0.0000000000000D+00  0.0000000000000D+00
   293  2.9200000000000D+00  0.0000000000000D+00  0.0000000000000D+00
   294  2.9300000000000D+00  0.0000000000000D+00  0.0000000000000D+00
   295  2.9400000000000D+00  0.0000000000000D+00  0.0000000000000D+00
   296  2.9500000000000D+00  0.0000000000000D+00  0.0000000000000D+00
   297  2.9600000000000D+00  0.0000000000000D+00  0.0000000000000D+00
   298  2.9700000000000D+00  0.0000000000000D+00  0.0000000000000D+00
   299  2.9800000000000D+00  0.0000000000000D+00  0.0000000000000D+00
   300  2.9900000000000D+00  0.0000000000000D+00  0.0000000000000D+00
   301  3.0000000000000D+00  0.0000000000000D+00  0.0000000000000D+00
   302  3.0100000000000D+00  0.0000000000000D+00  0.0000000000000D+00
   303  3.0200000000000D+00  0.0000000000000D+00  0.0000000000000D+00
   304  3.0300000000000D+00  0.0000000000000D+00  0.0000000000000D+00
   305  3.0400000000000D+00  0.0000000000000D+00  0.0000000000000D+00
   306  3.0500000000000D+00  0.0000000000000D+00  0.0000000000000D+00
   307  3.0600000000000D+00  0.0000000000000D+00  0.0000000000000D+00
   308  3.0700000000000D+00  0.0000000000000D+00  0.0000000000000D+00
   309  3.0800000000000D+00  0.0000000000000D+00  0.0000000000000D+00
   310  3.0900000000000D+00  0.0000000000000D+00  0.0000000000000D+00
   311  3.1000000000000D+00  0.0000000000000D+00  0.0000000000000D+00
   312  3.1100000000000D+00  0.0000000000000D+00  0.0000000000000D+00
   313  3.1200000000000D+00  0.0000000000000D+00  0.0000000000000D+00
   314  3.1300000000000D+00  0.0000000000000D+00  0.0000000000000D+00
   315  3.1400000000000D+00  0.0000000000000D+00  0.0000000000000D+00
   316  3.1500000000000D+00  0.0000000000000D+00  0.0000000000000D+00
   317  3.1600000000000D+00  0.0000000000000D+00  0.0000000000000D+00
   318  3.1700000000000D+00  0.0000000000000D+00  0.0000000000000D+00
   319  3.1800000000000D+00  0.0000000000000D+00  0.0000000000000D+00
   320  3.1900000000000D+00  0.0000000000000D+00  0.0000000000000D+00
   321  3.2000000000000D+00  0.0000000000000D+00  0.0000000000000D+00
   322  3.2100000000000D+00  0.0000000000000D+00  0.0000000000000D+00
   323  3.2200000000000D+00  0.0000000000000D+00  0.0000000000000D+00
   324  3.2300000000000D+00  0.0000000000000D+00  0.0000000000000D+00
   325  3.2400000000000D+00  0.0000000000000D+00  0.0000000000000D+00
   326  3.2500000000000D+00  0.0000000000000D+00  0.0000000000000D+00
   327  3.2600000000000D+00  0.0000000000000D+00  0.0000000000000D+00
   328  3.2700000000000D+00  0.0000000000000D+00  0.0000000000000D+00
   329  3.2800000000000D+00  0.0000000000000D+00  0.0000000000000D+00
   330  3.2900000000000D+00  0.0000000000000D+00  0.0000000000000D+00
   331  3.3000000000000D+00  0.0000000000000D+00  0.0000000000000D+00
   332  3.3100000000000D+00  0.0000000000000D+00  0.0000000000000D+00
   333  3.3200000000000D+00  0.0000000000000D+00  0.0000000000000D+00
   334  3.3300000000000D+00  0.0000000000000D+00  0.0000000000000D+00
   335  3.3400000000000D+00  0.0000000000000D+00  0.0000000000000D+00
   336  3.3500000000000D+00  0.0000000000000D+00  0.0000000000000D+00
   337  3.3600000000000D+00  0.0000000000000D+00  0.0000000000000D+00
   338  3.3700000000000D+00  0.0000000000000D+00  0.0000000000000D+00
   339  3.3800000000000D+00  0.0000000000000D+00  0.0000000000000D+00
   340  3.3900000000000D+00  0.0000000000000D+00  0.0000000000000D+00
   341  3.4000000000000D+00  0.0000000000000D+00  0.0000000000000D+00
   342  3.4100000000000D+00  0.0000000000000D+00  0.0000000000000D+00
   343  3.4200000000000D+00  0.0000000000000D+00  0.0000000000000D+00
   344  3.4300000000000D+00  0.0000000000000D+00  0.0000000000000D+00
   345  3.4400000000000D+00  0.0000000000000D+00  0.0000000000000D+00
   346  3.4500000000000D+00  0.0000000000000D+00  0.0000000000000D+00
   347  3.4600000000000D+00  0.0000000000000D+00  0.0000000000000D+00
   348  3.4700000000000D+00  0.0000000000000D+00  0.0000000000000D+00
   349  3.4800000000000D+00  0.0000000000000D+00  0.0000000000000D+00
   350  3.4900000000000D+00  0.0000000000000D+00  0.0000000000000D+00
   351  3.5000000000000D+00  0.0000000000000D+00  0.0000000000000D+00
   352  3.5100000000000D+00  0.0000000000000D+00  0.0000000000000D+00
   353  3.5200000000000D+00  0.0000000000000D+00  0.0000000000000D+00
   354  3.5300000000000D+00  0.0000000000000D+00  0.0000000000000D+00
   355  3.5400000000000D+00  0.0000000000000D+00  0.0000000000000D+00
   356  3.5500000000000D+00  0.0000000000000D+00  0.0000000000000D+00
   357  3.5600000000000D+00  0.0000000000000D+00  0.0000000000000D+00
   358  3.5700000000000D+00  0.0000000000000D+00  0.0000000000000D+00
   359  3.5800000000000D+00  0.0000000000000D+00  0.0000000000000D+00
   360  3.5900000000000D+00  0.0000000000000D+00  0.0000000000000D+00
   361  3.6000000000000D+00  0.0000000000000D+00  0.0000000000000D+00
   362  3.6100000000000D+00  0.0000000000000D+00  0.0000000000000D+00
   363  3.6200000000000D+00  0.0000000000000D+00  0.0000000000000D+00
   364  3.6300000000000D+00  0.0000000000000D+00  0.0000000000000D+00
   365  3.6400000000000D+00  0.0000000000000D+00  0.0000000000000D+00
   366  3.6500000000000D+00  0.0000000000000D+00  0.0000000000000D+00
   367  3.6600000000000D+00  0.0000000000000D+00  0.0000000000000D+00
   368  3.6700000000000D+00  0.0000000000000D+00  0.0000000000000D+00
   369  3.6800000000000D+00  0.0000000000000D+00  0.0000000000000D+00
   370  3.6900000000000D+00  0.0000000000000D+00  0.0000000000000D+00
   371  3.7000000000000D+00  0.0000000000000D+00  0.0000000000000D+00
   372  3.7100000000000D+00  0.0000000000000D+00  0.0000000000000D+00
   373  3.7200000000000D+00  0.0000000000000D+00  0.0000000000000D+00
   374  3.7300000000000D+00  0.0000000000000D+00  0.0000000000000D+00
   375  3.7400000000000D+00  0.0000000000000D+00  0.0000000000000D+00
   376  3.7500000000000D+00  0.0000000000000D+00  0.0000000000000D+00
   377  3.7600000000000D+00  0.0000000000000D+00  0.0000000000000D+00
   378  3.7700000000000D+00  0.0000000000000D+00  0.0000000000000D+00
   379  3.7800000000000D+00  0.0000000000000D+00  0.0000000000000D+00
   380  3.7900000000000D+00  0.0000000000000D+00  0.0000000000000D+00
   381  3.8000000000000D+00  0.0000000000000D+00  0.0000000000000D+00
   382  3.8100000000000D+00  0.0000000000000D+00  0.0000000000000D+00
   383  3.8200000000000D+00  0.0000000000000D+00  0.0000000000000D+00
   384  3.8300000000000D+00  0.0000000000000D+00  0.0000000000000D+00
   385  3.8400000000000D+00  0.0000000000000D+00  0.0000000000000D+00
   386  3.8500000000000D+00  0.0000000000000D+00  0.0000000000000D+00
   387  3.8600000000000D+00  0.0000000000000D+00  0.0000000000000D+00
   388  3.8700000000000D+00  0.0000000000000D+00  0.0000000000000D+00
   389  3.8800000000000D+00  0.0000000000000D+00  0.0000000000000D+00
   390  3.8900000000000D+00  0.0000000000000D+00  0.0000000000000D+00
   391  3.9000000000000D+00  0.0000000000000D+00  0.0000000000000D+00
   392  3.9100000000000D+00  0.0000000000000D+00  0.0000000000000D+00
   393  3.9200000000000D+00  0.0000000000000D+00  0.0000000000000D+00
   394  3.9300000000000D+00  0.0000000000000D+00  0.0000000000000D+00
   395  3.9400000000000D+00  0.0000000000000D+00  0.0000000000000D+00
   396  3.9500000000000D+00  0.0000000000000D+00  0.0000000000000D+00
   397  3.9600000000000D+00  0.0000000000000D+00  0.0000000000000D+00
   398  3.9700000000000D+00  0.0000000000000D+00  0.0000000000000D+00
   399  3.9800000000000D+00  0.0000000000000D+00  0.0000000000000D+00
   400  3.9900000000000D+00  0.0000000000000D+00  0.0000000000000D+00
   401  4.0000000000000D+00  0.0000000000000D+00  0.0000000000000D+00
   402  4.0100000000000D+00  0.0000000000000D+00  0.0000000000000D+00
   403  4.0200000000000D+00  0.0000000000000D+00  0.0000000000000D+00
   404  4.0300000000000D+00  0.0000000000000D+00  0.0000000000000D+00
   405  4.0400000000000D+00  0.0000000000000D+00  0.0000000000000D+00
   406  4.0500000000000D+00  0.0000000000000D+00  0.0000000000000D+00
   407  4.0600000000000D+00  0.0000000000000D+00  0.0000000000000D+00
   408  4.0700000000000D+00  0.0000000000000D+00  0.0000000000000D+00
   409  4.0800000000000D+00  0.0000000000000D+00  0.0000000000000D+00
   410  4.0900000000000D+00  0.0000000000000D+00  0.0000000000000D+00
   411  4.1000000000000D+00  0.0000000000000D+00  0.0000000000000D+00
   412  4.1100000000000D+00  0.0000000000000D+00  0.0000000000000D+00
   413  4.1200000000000D+00  0.0000000000000D+00  0.0000000000000D+00
   414  4.1300000000000D+00  0.0000000000000D+00  0.0000000000000D+00
   415  4.1400000000000D+00  0.0000000000000D+00  0.0000000000000D+00
   416  4.1500000000000D+00  0.0000000000000D+00  0.0000000000000D+00
   417  4.1600000000000D+00  0.0000000000000D+00  0.0000000000000D+00
   418  4.1700000000000D+00  0.0000000000000D+00  0.0000000000000D+00
   419  4.1800000000000D+00  0.0000000000000D+00  0.0000000000000D+00
   420  4.1900000000000D+00  0.0000000000000D+00  0.0000000000000D+00
   421  4.2000000000000D+00  0.0000000000000D+00  0.0000000000000D+00
   422  4.2100000000000D+00  0.0000000000000D+00  0.0000000000000D+00