Zn    ONCVPSP-3.3.0  r_core=   2.21501   2.21501   1.91959
     30.0000     12.0000      220408    zatom,zion,pspd
     8       2   2     4   600     0    pspcod,pspxc,lmax,lloc,mmax,r2well
  5.99000000  0.00000000  0.00000000    rchrg fchrg qchrg
     2     2     2     0     0    nproj
     1     1           extension_switch
   0                         4.9933078414512D+00  1.1488500992243D+00
     1  0.0000000000000D+00  1.0300406361186D-11 -2.4942936605044D-11
     2  1.0000000000000D-02  3.6477329857446D-03  3.2683790299910D-02
     3  2.0000000000000D-02  7.3525032644062D-03  6.5244472317795D-02
     4  3.0000000000000D-02  1.1171120332043D-02  9.7559417176903D-02
     5  4.0000000000000D-02  1.5159938875916D-02  1.2950695303796D-01
     6  5.0000000000000D-02  1.9374633329802D-02  1.6096683919152D-01
     7  6.0000000000000D-02  2.3869974773704D-02  1.9182073485617D-01
     8  7.0000000000000D-02  2.8699610947363D-02  2.2195266094723D-01
     9  8.0000000000000D-02  3.3915850136678D-02  2.5124945310527D-01
    10  9.0000000000000D-02  3.9569449679335D-02  2.7960120430496D-01
    11  1.0000000000000D-01  4.5709409820658D-02  3.0690169540177D-01
    12  1.1000000000000D-01  5.2382773633003D-02  3.3304881201662D-01
    13  1.2000000000000D-01  5.9634433691913D-02  3.5794494620750D-01
    14  1.3000000000000D-01  6.7506946179877D-02  3.8149738143078D-01
    15  1.4000000000000D-01  7.6040353063910D-02  4.0361865935483D-01
    16  1.5000000000000D-01  8.5272012966349D-02  4.2422692715270D-01
    17  1.6000000000000D-01  9.5236441319430D-02  4.4324626397072D-01
    18  1.7000000000000D-01  1.0596516036330D-01  4.6060698534388D-01
    19  1.8000000000000D-01  1.1748655951438D-01  4.7624592440772D-01
    20  1.9000000000000D-01  1.2982576659650D-01  4.9010668883959D-01
    21  2.0000000000000D-01  1.4300453039089D-01  5.0213989254892D-01
    22  2.1000000000000D-01  1.5704111492333D-01  5.1230336122686D-01
    23  2.2000000000000D-01  1.7195020586778D-01  5.2056231095971D-01
    24  2.3000000000000D-01  1.8774282940467D-01  5.2688949920694D-01
    25  2.4000000000000D-01  2.0442628383101D-01  5.3126534754522D-01
    26  2.5000000000000D-01  2.2200408417595D-01  5.3367803568071D-01
    27  2.6000000000000D-01  2.4047592003220D-01  5.3412356633687D-01
    28  2.7000000000000D-01  2.5983762676897D-01  5.3260580072999D-01
    29  2.8000000000000D-01  2.8008117024685D-01  5.2913646445185D-01
    30  2.9000000000000D-01  3.0119464510965D-01  5.2373512368663D-01
    31  3.0000000000000D-01  3.2316228668195D-01  5.1642913179759D-01
    32  3.1000000000000D-01  3.4596449645519D-01  5.0725354642736D-01
    33  3.2000000000000D-01  3.6957788109863D-01  4.9625101736423D-01
    34  3.3000000000000D-01  3.9397530488572D-01  4.8347164553408D-01
    35  3.4000000000000D-01  4.1912595538022D-01  4.6897281358453D-01
    36  3.5000000000000D-01  4.4499542218136D-01  4.5281898863302D-01
    37  3.6000000000000D-01  4.7154578848221D-01  4.3508149785411D-01
    38  3.7000000000000D-01  4.9873573515143D-01  4.1583827768239D-01
    39  3.8000000000000D-01  5.2652065700538D-01  3.9517359750667D-01
    40  3.9000000000000D-01  5.5485279089527D-01  3.7317775882676D-01
    41  4.0000000000000D-01  5.8368135519299D-01  3.4994677093704D-01
    42  4.1000000000000D-01  6.1295270021967D-01  3.2558200429019D-01
    43  4.2000000000000D-01  6.4261046912253D-01  3.0018982277989D-01
    44  4.3000000000000D-01  6.7259576866917D-01  2.7388119626198D-01
    45  4.4000000000000D-01  7.0284734939325D-01  2.4677129471055D-01
    46  4.5000000000000D-01  7.3330179449251D-01  2.1897906547673D-01
    47  4.6000000000000D-01  7.6389371684905D-01  1.9062679518458D-01
    48  4.7000000000000D-01  7.9455596351236D-01  1.6183965785992D-01
    49  4.8000000000000D-01  8.2521982695925D-01  1.3274525094289D-01
    50  4.9000000000000D-01  8.5581526241981D-01  1.0347312088518D-01
    51  5.0000000000000D-01  8.8627111053654D-01  7.4154280076189D-02
    52  5.1000000000000D-01  9.1651532460398D-01  4.4920716879673D-02
    53  5.2000000000000D-01  9.4647520161921D-01  1.5904900593292D-02
    54  5.3000000000000D-01  9.7607761635871D-01 -1.2760716832242D-02
    55  5.4000000000000D-01  1.0052492576856D+00 -4.0944200460241D-02
    56  5.5000000000000D-01  1.0339168662816D+00 -6.8514631556426D-02
    57  5.6000000000000D-01  1.0620074729928D+00 -9.5342604429862D-02
    58  5.7000000000000D-01  1.0894486369732D+00 -1.2130071906081D-01
    59  5.8000000000000D-01  1.1161686828108D+00 -1.4626406765995D-01
    60  5.9000000000000D-01  1.1420969358223D+00 -1.7011071332058D-01
    61  6.0000000000000D-01  1.1671639547083D+00 -1.9272215894908D-01
    62  6.1000000000000D-01  1.1913017607671D+00 -2.1398380469040D-01
    63  6.2000000000000D-01  1.2144440628787D+00 -2.3378539210233D-01
    64  6.3000000000000D-01  1.2365264774816D+00 -2.5202143337750D-01
    65  6.4000000000000D-01  1.2574867427819D+00 -2.6859162396241D-01
    66  6.5000000000000D-01  1.2772649264548D+00 -2.8340123698065D-01
    67  6.6000000000000D-01  1.2958036261187D+00 -2.9636149793111D-01
    68  6.7000000000000D-01  1.3130481618863D+00 -3.0738993820156D-01
    69  6.8000000000000D-01  1.3289467603254D+00 -3.1641072601381D-01
    70  6.9000000000000D-01  1.3434507291903D+00 -3.2335497349731D-01
    71  7.0000000000000D-01  1.3565146223169D+00 -3.2816101867547D-01
    72  7.1000000000000D-01  1.3680963941081D+00 -3.3077468123874D-01
    73  7.2000000000000D-01  1.3781575430717D+00 -3.3114949107637D-01
    74  7.3000000000000D-01  1.3866632439138D+00 -3.2924688863771D-01
    75  7.4000000000000D-01  1.3935824677255D+00 -3.2503639629920D-01
    76  7.5000000000000D-01  1.3988880898478D+00 -3.1849576002048D-01
    77  7.6000000000000D-01  1.4025569850399D+00 -3.0961106068469D-01
    78  7.7000000000000D-01  1.4045701096200D+00 -2.9837679463132D-01
    79  7.8000000000000D-01  1.4049125702969D+00 -2.8479592300688D-01
    80  7.9000000000000D-01  1.4035736794547D+00 -2.6887988967642D-01
    81  8.0000000000000D-01  1.4005469967020D+00 -2.5064860755844D-01
    82  8.1000000000000D-01  1.3958303565468D+00 -2.3013041336661D-01
    83  8.2000000000000D-01  1.3894258821059D+00 -2.0736199086290D-01
    84  8.3000000000000D-01  1.3813399848085D+00 -1.8238826284759D-01
    85  8.4000000000000D-01  1.3715833501037D+00 -1.5526225223290D-01
    86  8.5000000000000D-01  1.3601709092308D+00 -1.2604491266660D-01
    87  8.6000000000000D-01  1.3471217971622D+00 -9.4804929290660D-02
    88  8.7000000000000D-01  1.3324592968778D+00 -6.1618490336752D-02
    89  8.8000000000000D-01  1.3162107701787D+00 -2.6569030374853D-02
    90  8.9000000000000D-01  1.2984075752953D+00  1.0253053857160D-02
    91  9.0000000000000D-01  1.2790849715960D+00  4.8750714006684D-02
    92  9.1000000000000D-01  1.2582820117426D+00  8.8820585901059D-02
    93  9.2000000000000D-01  1.2360414216910D+00  1.3035334934209D-01
    94  9.3000000000000D-01  1.2124094689720D+00  1.7323411056261D-01
    95  9.4000000000000D-01  1.1874358197358D+00  2.1734280591589D-01
    96  9.5000000000000D-01  1.1611733850780D+00  2.6255462528319D-01
    97  9.6000000000000D-01  1.1336781572076D+00  3.0874045360449D-01
    98  9.7000000000000D-01  1.1050090360509D+00  3.5576732886281D-01
    99  9.8000000000000D-01  1.0752276469207D+00  4.0349891478629D-01
   100  9.9000000000000D-01  1.0443981499099D+00  4.5179598646953D-01
   101  1.0000000000000D+00  1.0125870417006D+00  5.0051692706262D-01
   102  1.0100000000000D+00  9.7986295050291D-01  5.4951823362910D-01
   103  1.0200000000000D+00  9.4629642486310D-01  5.9865503023509D-01
   104  1.0300000000000D+00  9.1195971710202D-01  6.4778158629953D-01
   105  1.0400000000000D+00  8.7692656216136D-01  6.9675183821201D-01
   106  1.0500000000000D+00  8.4127195265066D-01  7.4541991220877D-01
   107  1.0600000000000D+00  8.0507191090076D-01  7.9364064648851D-01
   108  1.0700000000000D+00  7.6840325883707D-01  8.4127011055090D-01
   109  1.0800000000000D+00  7.3134338649248D-01  8.8816611974783D-01
   110  1.0900000000000D+00  6.9397001998139D-01  9.3418874305693D-01
   111  1.1000000000000D+00  6.5636098975685D-01  9.7920080210478D-01
   112  1.1100000000000D+00  6.1859399996800D-01  1.0230683595072D+00
   113  1.1200000000000D+00  5.8074639972869D-01  1.0656611946291D+00
   114  1.1300000000000D+00  5.4289495709647D-01  1.1068532649206D+00
   115  1.1400000000000D+00  5.0511563655059D-01  1.1465231510326D+00
   116  1.1500000000000D+00  4.6748338073946D-01  1.1845544839865D+00
   117  1.1600000000000D+00  4.3007189724933D-01  1.2208363527386D+00
   118  1.1700000000000D+00  3.9295345112087D-01  1.2552636905694D+00
   119  1.1800000000000D+00  3.5619866382346D-01  1.2877376387831D+00
   120  1.1900000000000D+00  3.1987631936070D-01  1.3181658863235D+00
   121  1.2000000000000D+00  2.8405317815336D-01  1.3464629839972D+00
   122  1.2100000000000D+00  2.4879379931215D-01  1.3725506321003D+00
   123  1.2200000000000D+00  2.1416037188687D-01  1.3963579403255D+00
   124  1.2300000000000D+00  1.8021255562654D-01  1.4178216589798D+00
   125  1.2400000000000D+00  1.4700733174590D-01  1.4368863806607D+00
   126  1.2500000000000D+00  1.1459886418093D-01  1.4535047115739D+00
   127  1.2600000000000D+00  8.3038371733963D-02  1.4676374119138D+00
   128  1.2700000000000D+00  5.2374011477176D-02  1.4792535048157D+00
   129  1.2800000000000D+00  2.2650773767763D-02  1.4883303534317D+00
   130  1.2900000000000D+00 -6.0896108621093D-03  1.4948537059360D+00
   131  1.3000000000000D+00 -3.3808752718874D-02  1.4988177083747D+00
   132  1.3100000000000D+00 -6.0471671640831D-02  1.5002248852688D+00
   133  1.3200000000000D+00 -8.6046853266735D-02  1.4990860882068D+00
   134  1.3300000000000D+00 -1.1050629279959D-01  1.4954204127167D+00
   135  1.3400000000000D+00 -1.3382552618086D-01  1.4892550837036D+00
   136  1.3500000000000D+00 -1.5598364874139D-01  1.4806253101302D+00
   137  1.3600000000000D+00 -1.7696332136591D-01  1.4695741095359D+00
   138  1.3700000000000D+00 -1.9675076425683D-01  1.4561521031238D+00
   139  1.3800000000000D+00 -2.1533573851297D-01  1.4404172824634D+00
   140  1.3900000000000D+00 -2.3271151566242D-01  1.4224347486685D+00
   141  1.4000000000000D+00 -2.4887483543420D-01  1.4022764252728D+00
   142  1.4100000000000D+00 -2.6382585208024D-01  1.3800207460772D+00
   143  1.4200000000000D+00 -2.7756806951558D-01  1.3557523191517D+00
   144  1.4300000000000D+00 -2.9010826574663D-01  1.3295615686399D+00
   145  1.4400000000000D+00 -3.0145640692423D-01  1.3015443557064D+00
   146  1.4500000000000D+00 -3.1162555151777D-01  1.2718015803348D+00
   147  1.4600000000000D+00 -3.2063174510899D-01  1.2404387656713D+00
   148  1.4700000000000D+00 -3.2849390627024D-01  1.2075656265593D+00
   149  1.4800000000000D+00 -3.3523370416954D-01  1.1732956242491D+00
   150  1.4900000000000D+00 -3.4087542838324D-01  1.1377455089675D+00
   151  1.5000000000000D+00 -3.4544585160772D-01  1.1010348524183D+00
   152  1.5100000000000D+00 -3.4897408584005D-01  1.0632855720555D+00
   153  1.5200000000000D+00 -3.5149143269988D-01  1.0246214491713D+00
   154  1.5300000000000D+00 -3.5303122855680D-01  9.8516764276171D-01
   155  1.5400000000000D+00 -3.5362868512069D-01  9.4505020121477D-01
   156  1.5500000000000D+00 -3.5332072620906D-01  9.0439557377568D-01
   157  1.5600000000000D+00 -3.5214582135932D-01  8.6333012389386D-01
   158  1.5700000000000D+00 -3.5014381700075D-01  8.2197964630133D-01
   159  1.5800000000000D+00 -3.4735576588156D-01  7.8046888996252D-01
   160  1.5900000000000D+00 -3.4382375543954D-01  7.3892108864564D-01
   161  1.6000000000000D+00 -3.3959073582277D-01  6.9745750118328D-01
   162  1.6100000000000D+00 -3.3470034822862D-01  6.5619696312490D-01
   163  1.6200000000000D+00 -3.2919675424136D-01  6.1525545165968D-01
   164  1.6300000000000D+00 -3.2312446683097D-01  5.7474566550883D-01
   165  1.6400000000000D+00 -3.1652818363026D-01  5.3477662137872D-01
   166  1.6500000000000D+00 -3.0945262315857D-01  4.9545326869635D-01
   167  1.6600000000000D+00 -3.0194236451625D-01  4.5687612386005D-01
   168  1.6700000000000D+00 -2.9404169122732D-01  4.1914092574954D-01
   169  1.6800000000000D+00 -2.8579443964294D-01  3.8233831333398D-01
   170  1.6900000000000D+00 -2.7724385258541D-01  3.4655352711213D-01
   171  1.7000000000000D+00 -2.6843243852878D-01  3.1186613483621D-01
   172  1.7100000000000D+00 -2.5940183697811D-01  2.7834978317188D-01
   173  1.7200000000000D+00 -2.5019269023934D-01  2.4607197541548D-01
   174  1.7300000000000D+00 -2.4084452218816D-01  2.1509387672407D-01
   175  1.7400000000000D+00 -2.3139562415726D-01  1.8547014675928D-01
   176  1.7500000000000D+00 -2.2188294844410D-01  1.5724880084188D-01
   177  1.7600000000000D+00 -2.1234200953778D-01  1.3047109946397D-01
   178  1.7700000000000D+00 -2.0280679339111D-01  1.0517146669067D-01
   179  1.7800000000000D+00 -1.9330967488631D-01  8.1377437459427D-02
   180  1.7900000000000D+00 -1.8388134356137D-01  5.9109633505566D-02
   181  1.8000000000000D+00 -1.7455073787951D-01  3.8381768327991D-02
   182  1.8100000000000D+00 -1.6534498776101D-01  1.9200679879128D-02
   183  1.8200000000000D+00 -1.5628936587992D-01  1.5663920345977D-03
   184  1.8300000000000D+00 -1.4740724702013D-01 -1.4527797711453D-02
   185  1.8400000000000D+00 -1.3872007627446D-01 -2.9095202479092D-02
   186  1.8500000000000D+00 -1.3024734494386D-01 -4.2155605949856D-02
   187  1.8600000000000D+00 -1.2200657441411D-01 -5.3735097615218D-02
   188  1.8700000000000D+00 -1.1401331107866D-01 -6.3865875409000D-02
   189  1.8800000000000D+00 -1.0628111813762D-01 -7.2586054807913D-02
   190  1.8900000000000D+00 -9.8821599251845D-02 -7.9939391402439D-02
   191  1.9000000000000D+00 -9.1644408630280D-02 -8.5975036035849D-02
   192  1.9100000000000D+00 -8.4757239649474D-02 -9.0747350579923D-02
   193  1.9200000000000D+00 -7.8165853517924D-02 -9.4315617646330D-02
   194  1.9300000000000D+00 -7.1874235626324D-02 -9.6743393080909D-02
   195  1.9400000000000D+00 -6.5884703187621D-02 -9.8097985791954D-02
   196  1.9500000000000D+00 -6.0198044082617D-02 -9.8449911895997D-02
   197  1.9600000000000D+00 -5.4813716753114D-02 -9.7872165346303D-02
   198  1.9700000000000D+00 -4.9729923907129D-02 -9.6439851949205D-02
   199  1.9800000000000D+00 -4.4943677533243D-02 -9.4229858688747D-02
   200  1.9900000000000D+00 -4.0450884837417D-02 -9.1320467703554D-02
   201  2.0000000000000D+00 -3.6246459793832D-02 -8.7790894028360D-02
   202  2.0100000000000D+00 -3.2324409321243D-02 -8.3720904854706D-02
   203  2.0200000000000D+00 -2.8677934065777D-02 -7.9190400132643D-02
   204  2.0300000000000D+00 -2.5299525021106D-02 -7.4279009647893D-02
   205  2.0400000000000D+00 -2.2181060800725D-02 -6.9065693053635D-02
   206  2.0500000000000D+00 -1.9313904252760D-02 -6.3628346655758D-02
   207  2.0600000000000D+00 -1.6688997915822D-02 -5.8043418490398D-02
   208  2.0700000000000D+00 -1.4296957326499D-02 -5.2385534966436D-02
   209  2.0800000000000D+00 -1.2128162420351D-02 -4.6727138095249D-02
   210  2.0900000000000D+00 -1.0172845530569D-02 -4.1138138183228D-02
   211  2.1000000000000D+00 -8.4211762534178D-03 -3.5685581021865D-02
   212  2.1100000000000D+00 -6.8633425089303D-03 -3.0433331691009D-02
   213  2.1200000000000D+00 -5.4896266823342D-03 -2.5441778493529D-02
   214  2.1300000000000D+00 -4.2904778410100D-03 -2.0767553841395D-02
   215  2.1400000000000D+00 -3.2567548131150D-03 -1.6464841079413D-02
   216  2.1500000000000D+00 -2.3794616816025D-03 -1.2582266773834D-02
   217  2.1600000000000D+00 -1.6489976520279D-03 -9.1555793209232D-03
   218  2.1700000000000D+00 -1.0558042139257D-03 -6.2097157503722D-03
   219  2.1800000000000D+00 -5.9556911164501D-04 -3.8154974375842D-03
   220  2.1900000000000D+00 -2.6395880325748D-04 -2.0359061734170D-03
   221  2.2000000000000D+00 -5.2751025483872D-05 -8.9285258728990D-04
   222  2.2100000000000D+00  5.4590223673263D-05 -2.6196377297401D-04
   223  2.2200000000000D+00  7.7737855324563D-05  3.8606364524629D-06
   224  2.2300000000000D+00  4.8477181262823D-05  5.3413127937450D-05
   225  2.2400000000000D+00  5.9190421999678D-06  8.9532701910119D-06
   226  2.2500000000000D+00 -1.2731197128989D-05 -2.1043710095729D-05
   227  2.2600000000000D+00 -1.0237317331715D-05 -1.8600304619784D-05
   228  2.2700000000000D+00  6.1611095700759D-07  7.4148514483476D-07
   229  2.2800000000000D+00  2.8588783118749D-06  3.6999106268937D-06
   230  2.2900000000000D+00  1.6326545115244D-06  2.2286921789484D-06
   231  2.3000000000000D+00 -1.1425142903543D-07  1.4232002972259D-07
   232  2.3100000000000D+00 -2.1355190621769D-07  2.6601604808631D-07
   233  2.3200000000000D+00 -7.3811200415249D-08  9.1944690107122D-08
   234  2.3300000000000D+00  0.0000000000000D+00  0.0000000000000D+00
   235  2.3400000000000D+00  0.0000000000000D+00  0.0000000000000D+00
   236  2.3500000000000D+00  0.0000000000000D+00  0.0000000000000D+00
   237  2.3600000000000D+00  0.0000000000000D+00  0.0000000000000D+00
   238  2.3700000000000D+00  0.0000000000000D+00  0.0000000000000D+00
   239  2.3800000000000D+00  0.0000000000000D+00  0.0000000000000D+00
   240  2.3900000000000D+00  0.0000000000000D+00  0.0000000000000D+00
   241  2.4000000000000D+00  0.0000000000000D+00  0.0000000000000D+00
   242  2.4100000000000D+00  0.0000000000000D+00  0.0000000000000D+00
   243  2.4200000000000D+00  0.0000000000000D+00  0.0000000000000D+00
   244  2.4300000000000D+00  0.0000000000000D+00  0.0000000000000D+00
   245  2.4400000000000D+00  0.0000000000000D+00  0.0000000000000D+00
   246  2.4500000000000D+00  0.0000000000000D+00  0.0000000000000D+00
   247  2.4600000000000D+00  0.0000000000000D+00  0.0000000000000D+00
   248  2.4700000000000D+00  0.0000000000000D+00  0.0000000000000D+00
   249  2.4800000000000D+00  0.0000000000000D+00  0.0000000000000D+00
   250  2.4900000000000D+00  0.0000000000000D+00  0.0000000000000D+00
   251  2.5000000000000D+00  0.0000000000000D+00  0.0000000000000D+00
   252  2.5100000000000D+00  0.0000000000000D+00  0.0000000000000D+00
   253  2.5200000000000D+00  0.0000000000000D+00  0.0000000000000D+00
   254  2.5300000000000D+00  0.0000000000000D+00  0.0000000000000D+00
   255  2.5400000000000D+00  0.0000000000000D+00  0.0000000000000D+00
   256  2.5500000000000D+00  0.0000000000000D+00  0.0000000000000D+00
   257  2.5600000000000D+00  0.0000000000000D+00  0.0000000000000D+00
   258  2.5700000000000D+00  0.0000000000000D+00  0.0000000000000D+00
   259  2.5800000000000D+00  0.0000000000000D+00  0.0000000000000D+00
   260  2.5900000000000D+00  0.0000000000000D+00  0.0000000000000D+00
   261  2.6000000000000D+00  0.0000000000000D+00  0.0000000000000D+00
   262  2.6100000000000D+00  0.0000000000000D+00  0.0000000000000D+00
   263  2.6200000000000D+00  0.0000000000000D+00  0.0000000000000D+00
   264  2.6300000000000D+00  0.0000000000000D+00  0.0000000000000D+00
   265  2.6400000000000D+00  0.0000000000000D+00  0.0000000000000D+00
   266  2.6500000000000D+00  0.0000000000000D+00  0.0000000000000D+00
   267  2.6600000000000D+00  0.0000000000000D+00  0.0000000000000D+00
   268  2.6700000000000D+00  0.0000000000000D+00  0.0000000000000D+00
   269  2.6800000000000D+00  0.0000000000000D+00  0.0000000000000D+00
   270  2.6900000000000D+00  0.0000000000000D+00  0.0000000000000D+00
   271  2.7000000000000D+00  0.0000000000000D+00  0.0000000000000D+00
   272  2.7100000000000D+00  0.0000000000000D+00  0.0000000000000D+00
   273  2.7200000000000D+00  0.0000000000000D+00  0.0000000000000D+00
   274  2.7300000000000D+00  0.0000000000000D+00  0.0000000000000D+00
   275  2.7400000000000D+00  0.0000000000000D+00  0.0000000000000D+00
   276  2.7500000000000D+00  0.0000000000000D+00  0.0000000000000D+00
   277  2.7600000000000D+00  0.0000000000000D+00  0.0000000000000D+00
   278  2.7700000000000D+00  0.0000000000000D+00  0.0000000000000D+00
   279  2.7800000000000D+00  0.0000000000000D+00  0.0000000000000D+00
   280  2.7900000000000D+00  0.0000000000000D+00  0.0000000000000D+00
   281  2.8000000000000D+00  0.0000000000000D+00  0.0000000000000D+00
   282  2.8100000000000D+00  0.0000000000000D+00  0.0000000000000D+00
   283  2.8200000000000D+00  0.0000000000000D+00  0.0000000000000D+00
   284  2.8300000000000D+00  0.0000000000000D+00  0.0000000000000D+00
   285  2.8400000000000D+00  0.0000000000000D+00  0.0000000000000D+00
   286  2.8500000000000D+00  0.0000000000000D+00  0.0000000000000D+00
   287  2.8600000000000D+00  0.0000000000000D+00  0.0000000000000D+00
   288  2.8700000000000D+00  0.0000000000000D+00  0.0000000000000D+00
   289  2.8800000000000D+00  0.0000000000000D+00  0.0000000000000D+00
   290  2.8900000000000D+00  0.0000000000000D+00  0.0000000000000D+00
   291  2.9000000000000D+00  0.0000000000000D+00  0.0000000000000D+00
   292  2.9100000000000D+00  0.0000000000000D+00  0.0000000000000D+00
   293  2.9200000000000D+00  0.0000000000000D+00  0.0000000000000D+00
   294  2.9300000000000D+00  0.0000000000000D+00  0.0000000000000D+00
   295  2.9400000000000D+00  0.0000000000000D+00  0.0000000000000D+00
   296  2.9500000000000D+00  0.0000000000000D+00  0.0000000000000D+00
   297  2.9600000000000D+00  0.0000000000000D+00  0.0000000000000D+00
   298  2.9700000000000D+00  0.0000000000000D+00  0.0000000000000D+00
   299  2.9800000000000D+00  0.0000000000000D+00  0.0000000000000D+00
   300  2.9900000000000D+00  0.0000000000000D+00  0.0000000000000D+00
   301  3.0000000000000D+00  0.0000000000000D+00  0.0000000000000D+00
   302  3.0100000000000D+00  0.0000000000000D+00  0.0000000000000D+00
   303  3.0200000000000D+00  0.0000000000000D+00  0.0000000000000D+00
   304  3.0300000000000D+00  0.0000000000000D+00  0.0000000000000D+00
   305  3.0400000000000D+00  0.0000000000000D+00  0.0000000000000D+00
   306  3.0500000000000D+00  0.0000000000000D+00  0.0000000000000D+00
   307  3.0600000000000D+00  0.0000000000000D+00  0.0000000000000D+00
   308  3.0700000000000D+00  0.0000000000000D+00  0.0000000000000D+00
   309  3.0800000000000D+00  0.0000000000000D+00  0.0000000000000D+00
   310  3.0900000000000D+00  0.0000000000000D+00  0.0000000000000D+00
   311  3.1000000000000D+00  0.0000000000000D+00  0.0000000000000D+00
   312  3.1100000000000D+00  0.0000000000000D+00  0.0000000000000D+00
   313  3.1200000000000D+00  0.0000000000000D+00  0.0000000000000D+00
   314  3.1300000000000D+00  0.0000000000000D+00  0.0000000000000D+00
   315  3.1400000000000D+00  0.0000000000000D+00  0.0000000000000D+00
   316  3.1500000000000D+00  0.0000000000000D+00  0.0000000000000D+00
   317  3.1600000000000D+00  0.0000000000000D+00  0.0000000000000D+00
   318  3.1700000000000D+00  0.0000000000000D+00  0.0000000000000D+00
   319  3.1800000000000D+00  0.0000000000000D+00  0.0000000000000D+00
   320  3.1900000000000D+00  0.0000000000000D+00  0.0000000000000D+00
   321  3.2000000000000D+00  0.0000000000000D+00  0.0000000000000D+00
   322  3.2100000000000D+00  0.0000000000000D+00  0.0000000000000D+00
   323  3.2200000000000D+00  0.0000000000000D+00  0.0000000000000D+00
   324  3.2300000000000D+00  0.0000000000000D+00  0.0000000000000D+00
   325  3.2400000000000D+00  0.0000000000000D+00  0.0000000000000D+00
   326  3.2500000000000D+00  0.0000000000000D+00  0.0000000000000D+00
   327  3.2600000000000D+00  0.0000000000000D+00  0.0000000000000D+00
   328  3.2700000000000D+00  0.0000000000000D+00  0.0000000000000D+00
   329  3.2800000000000D+00  0.0000000000000D+00  0.0000000000000D+00
   330  3.2900000000000D+00  0.0000000000000D+00  0.0000000000000D+00
   331  3.3000000000000D+00  0.0000000000000D+00  0.0000000000000D+00
   332  3.3100000000000D+00  0.0000000000000D+00  0.0000000000000D+00
   333  3.3200000000000D+00  0.0000000000000D+00  0.0000000000000D+00
   334  3.3300000000000D+00  0.0000000000000D+00  0.0000000000000D+00
   335  3.3400000000000D+00  0.0000000000000D+00  0.0000000000000D+00
   336  3.3500000000000D+00  0.0000000000000D+00  0.0000000000000D+00
   337  3.3600000000000D+00  0.0000000000000D+00  0.0000000000000D+00
   338  3.3700000000000D+00  0.0000000000000D+00  0.0000000000000D+00
   339  3.3800000000000D+00  0.0000000000000D+00  0.0000000000000D+00
   340  3.3900000000000D+00  0.0000000000000D+00  0.0000000000000D+00
   341  3.4000000000000D+00  0.0000000000000D+00  0.0000000000000D+00
   342  3.4100000000000D+00  0.0000000000000D+00  0.0000000000000D+00
   343  3.4200000000000D+00  0.0000000000000D+00  0.0000000000000D+00
   344  3.4300000000000D+00  0.0000000000000D+00  0.0000000000000D+00
   345  3.4400000000000D+00  0.0000000000000D+00  0.0000000000000D+00
   346  3.4500000000000D+00  0.0000000000000D+00  0.0000000000000D+00
   347  3.4600000000000D+00  0.0000000000000D+00  0.0000000000000D+00
   348  3.4700000000000D+00  0.0000000000000D+00  0.0000000000000D+00
   349  3.4800000000000D+00  0.0000000000000D+00  0.0000000000000D+00
   350  3.4900000000000D+00  0.0000000000000D+00  0.0000000000000D+00
   351  3.5000000000000D+00  0.0000000000000D+00  0.0000000000000D+00
   352  3.5100000000000D+00  0.0000000000000D+00  0.0000000000000D+00
   353  3.5200000000000D+00  0.0000000000000D+00  0.0000000000000D+00
   354  3.5300000000000D+00  0.0000000000000D+00  0.0000000000000D+00
   355  3.5400000000000D+00  0.0000000000000D+00  0.0000000000000D+00
   356  3.5500000000000D+00  0.0000000000000D+00  0.0000000000000D+00
   357  3.5600000000000D+00  0.0000000000000D+00  0.0000000000000D+00
   358  3.5700000000000D+00  0.0000000000000D+00  0.0000000000000D+00
   359  3.5800000000000D+00  0.0000000000000D+00  0.0000000000000D+00
   360  3.5900000000000D+00  0.0000000000000D+00  0.0000000000000D+00
   361  3.6000000000000D+00  0.0000000000000D+00  0.0000000000000D+00
   362  3.6100000000000D+00  0.0000000000000D+00  0.0000000000000D+00
   363  3.6200000000000D+00  0.0000000000000D+00  0.0000000000000D+00
   364  3.6300000000000D+00  0.0000000000000D+00  0.0000000000000D+00
   365  3.6400000000000D+00  0.0000000000000D+00  0.0000000000000D+00
   366  3.6500000000000D+00  0.0000000000000D+00  0.0000000000000D+00
   367  3.6600000000000D+00  0.0000000000000D+00  0.0000000000000D+00
   368  3.6700000000000D+00  0.0000000000000D+00  0.0000000000000D+00
   369  3.6800000000000D+00  0.0000000000000D+00  0.0000000000000D+00
   370  3.6900000000000D+00  0.0000000000000D+00  0.0000000000000D+00
   371  3.7000000000000D+00  0.0000000000000D+00  0.0000000000000D+00
   372  3.7100000000000D+00  0.0000000000000D+00  0.0000000000000D+00
   373  3.7200000000000D+00  0.0000000000000D+00  0.0000000000000D+00
   374  3.7300000000000D+00  0.0000000000000D+00  0.0000000000000D+00
   375  3.7400000000000D+00  0.0000000000000D+00  0.0000000000000D+00
   376  3.7500000000000D+00  0.0000000000000D+00  0.0000000000000D+00
   377  3.7600000000000D+00  0.0000000000000D+00  0.0000000000000D+00
   378  3.7700000000000D+00  0.0000000000000D+00  0.0000000000000D+00
   379  3.7800000000000D+00  0.0000000000000D+00  0.0000000000000D+00
   380  3.7900000000000D+00  0.0000000000000D+00  0.0000000000000D+00
   381  3.8000000000000D+00  0.0000000000000D+00  0.0000000000000D+00
   382  3.8100000000000D+00  0.0000000000000D+00  0.0000000000000D+00
   383  3.8200000000000D+00  0.0000000000000D+00  0.0000000000000D+00
   384  3.8300000000000D+00  0.0000000000000D+00  0.0000000000000D+00
   385  3.8400000000000D+00  0.0000000000000D+00  0.0000000000000D+00
   386  3.8500000000000D+00  0.0000000000000D+00  0.0000000000000D+00
   387  3.8600000000000D+00  0.0000000000000D+00  0.0000000000000D+00
   388  3.8700000000000D+00  0.0000000000000D+00  0.0000000000000D+00
   389  3.8800000000000D+00  0.0000000000000D+00  0.0000000000000D+00
   390  3.8900000000000D+00  0.0000000000000D+00  0.0000000000000D+00
   391  3.9000000000000D+00  0.0000000000000D+00  0.0000000000000D+00
   392  3.9100000000000D+00  0.0000000000000D+00  0.0000000000000D+00
   393  3.9200000000000D+00  0.0000000000000D+00  0.0000000000000D+00
   394  3.9300000000000D+00  0.0000000000000D+00  0.0000000000000D+00
   395  3.9400000000000D+00  0.0000000000000D+00  0.0000000000000D+00
   396  3.9500000000000D+00  0.0000000000000D+00  0.0000000000000D+00
   397  3.9600000000000D+00  0.0000000000000D+00  0.0000000000000D+00
   398  3.9700000000000D+00  0.0000000000000D+00  0.0000000000000D+00
   399  3.9800000000000D+00  0.0000000000000D+00  0.0000000000000D+00
   400  3.9900000000000D+00  0.0000000000000D+00  0.0000000000000D+00
   401  4.0000000000000D+00  0.0000000000000D+00  0.0000000000000D+00
   402  4.0100000000000D+00  0.0000000000000D+00  0.0000000000000D+00
   403  4.0200000000000D+00  0.0000000000000D+00  0.0000000000000D+00
   404  4.0300000000000D+00  0.0000000000000D+00  0.0000000000000D+00
   405  4.0400000000000D+00  0.0000000000000D+00  0.0000000000000D+00
   406  4.0500000000000D+00  0.0000000000000D+00  0.0000000000000D+00
   407  4.0600000000000D+00  0.0000000000000D+00  0.0000000000000D+00
   408  4.0700000000000D+00  0.0000000000000D+00  0.0000000000000D+00
   409  4.0800000000000D+00  0.0000000000000D+00  0.0000000000000D+00
   410  4.0900000000000D+00  0.0000000000000D+00  0.0000000000000D+00
   411  4.1000000000000D+00  0.0000000000000D+00  0.0000000000000D+00
   412  4.1100000000000D+00  0.0000000000000D+00  0.0000000000000D+00
   413  4.1200000000000D+00  0.0000000000000D+00  0.0000000000000D+00
   414  4.1300000000000D+00  0.0000000000000D+00  0.0000000000000D+00
   415  4.1400000000000D+00  0.0000000000000D+00  0.0000000000000D+00
   416  4.1500000000000D+00  0.0000000000000D+00  0.0000000000000D+00
   417  4.1600000000000D+00  0.0000000000000D+00  0.0000000000000D+00
   418  4.1700000000000D+00  0.0000000000000D+00  0.0000000000000D+00
   419  4.1800000000000D+00  0.0000000000000D+00  0.0000000000000D+00
   420  4.1900000000000D+00  0.0000000000000D+00  0.0000000000000D+00
   421  4.2000000000000D+00  0.0000000000000D+00  0.0000000000000D+00
   422  4.2100000000000D+00  0.0000000000000D+00  0.0000000000000D+00