Er    ONCVPSP-3.3.0  r_core=   1.81708   1.50137   1.65170   1.71187
     68.0000     22.0000      220408    zatom,zion,pspd
     8       2   3     4   600     0    pspcod,pspxc,lmax,lloc,mmax,r2well
  5.99000000  0.00000000  0.00000000    rchrg fchrg qchrg
     2     2     2     2     0    nproj
     1     1           extension_switch
   0                         8.7000742166091D+00  7.0062043385863D-01
     1  0.0000000000000D+00 -5.4305115959608D-11  3.0515467930314D-10
     2  1.0000000000000D-02  5.2734855733166D-02 -2.3169949752546D-02
     3  2.0000000000000D-02  1.0539096295853D-01 -4.6196308645201D-02
     4  3.0000000000000D-02  1.5788979612317D-01 -6.8936500805096D-02
     5  4.0000000000000D-02  2.1015327410315D-01 -9.1249971540972D-02
     6  5.0000000000000D-02  2.6210397872982D-01 -1.1299917603078D-01
     7  6.0000000000000D-02  3.1366536892909D-01 -1.3405054194283D-01
     8  7.0000000000000D-02  3.6476198907557D-01 -1.5427539766211D-01
     9  8.0000000000000D-02  4.1531967021757D-01 -1.7355085809844D-01
    10  9.0000000000000D-02  4.6526572289616D-01 -1.9176066042977D-01
    11  1.0000000000000D-01  5.1452912036024D-01 -2.0879594257883D-01
    12  1.1000000000000D-01  5.6304067107005D-01 -2.2455595773114D-01
    13  1.2000000000000D-01  6.1073317948200D-01 -2.3894871877226D-01
    14  1.3000000000000D-01  6.5754159421853D-01 -2.5189156714808D-01
    15  1.4000000000000D-01  7.0340314284515D-01 -2.6331166132772D-01
    16  1.5000000000000D-01  7.4825745260344D-01 -2.7314638076966D-01
    17  1.6000000000000D-01  7.9204665658133D-01 -2.8134364205082D-01
    18  1.7000000000000D-01  8.3471548493953D-01 -2.8786212460929D-01
    19  1.8000000000000D-01  8.7621134095458D-01 -2.9267140436855D-01
    20  1.9000000000000D-01  9.1648436178225D-01 -2.9575199434481D-01
    21  2.0000000000000D-01  9.5548746399027D-01 -2.9709529218534D-01
    22  2.1000000000000D-01  9.9317637405313D-01 -2.9670343543399D-01
    23  2.2000000000000D-01  1.0295096441444D+00 -2.9458906616509D-01
    24  2.3000000000000D-01  1.0644486537005D+00 -2.9077500746006D-01
    25  2.4000000000000D-01  1.0979575973659D+00 -2.8529385501459D-01
    26  2.5000000000000D-01  1.1300034600547D+00 -2.7818748795158D-01
    27  2.6000000000000D-01  1.1605559799887D+00 -2.6950650366801D-01
    28  2.7000000000000D-01  1.1895876006803D+00 -2.5930958225568D-01
    29  2.8000000000000D-01  1.2170734129331D+00 -2.4766278670019D-01
    30  2.9000000000000D-01  1.2429910880226D+00 -2.3463880567146D-01
    31  3.0000000000000D-01  1.2673208032992D+00 -2.2031614626902D-01
    32  3.1000000000000D-01  1.2900451615211D+00 -2.0477828456780D-01
    33  3.2000000000000D-01  1.3111491052749D+00 -1.8811278222173D-01
    34  3.3000000000000D-01  1.3306198278809D+00 -1.7041037772016D-01
    35  3.4000000000000D-01  1.3484466821993D+00 -1.5176406114658D-01
    36  3.5000000000000D-01  1.3646210887605D+00 -1.3226814146530D-01
    37  3.6000000000000D-01  1.3791364446321D+00 -1.1201731544882D-01
    38  3.7000000000000D-01  1.3919880344073D+00 -9.1105747361297D-02
    39  3.8000000000000D-01  1.4031729446583D+00 -6.9626168427515D-02
    40  3.9000000000000D-01  1.4126899831375D+00 -4.7669004941579D-02
    41  4.0000000000000D-01  1.4205396039369D+00 -2.5321543609966D-02
    42  4.1000000000000D-01  1.4267238397225D+00 -2.6671423745904D-03
    43  4.2000000000000D-01  1.4312462420610D+00  2.0215505467329D-02
    44  4.3000000000000D-01  1.4341118307342D+00  4.3253046541414D-02
    45  4.4000000000000D-01  1.4353270528086D+00  6.6378075352701D-02
    46  4.5000000000000D-01  1.4348997520844D+00  8.9529668859343D-02
    47  4.6000000000000D-01  1.4328391493982D+00  1.1265384232398D-01
    48  4.7000000000000D-01  1.4291558340915D+00  1.3570392188591D-01
    49  4.8000000000000D-01  1.4238617667922D+00  1.5864083013010D-01
    50  4.9000000000000D-01  1.4169702934828D+00  1.8143328180643D-01
    51  5.0000000000000D-01  1.4084961706542D+00  2.0405788776502D-01
    52  5.1000000000000D-01  1.3984556011688D+00  2.2649916611350D-01
    53  5.2000000000000D-01  1.3868662802786D+00  2.4874946055730D-01
    54  5.3000000000000D-01  1.3737474510732D+00  2.7080876684881D-01
    55  5.4000000000000D-01  1.3591199684645D+00  2.9268446923165D-01
    56  5.5000000000000D-01  1.3430063706530D+00  3.1439098971512D-01
    57  5.6000000000000D-01  1.3254309568709D+00  3.3594935393847D-01
    58  5.7000000000000D-01  1.3064198700549D+00  3.5738667827743D-01
    59  5.8000000000000D-01  1.2860011829774D+00  3.7873558369335D-01
    60  5.9000000000000D-01  1.2642049862501D+00  4.0003354262133D-01
    61  6.0000000000000D-01  1.2410634765205D+00  4.2132216592673D-01
    62  6.1000000000000D-01  1.2166110431077D+00  4.4264643762079D-01
    63  6.2000000000000D-01  1.1908843512636D+00  4.6405390560933D-01
    64  6.3000000000000D-01  1.1639224202149D+00  4.8559383724131D-01
    65  6.4000000000000D-01  1.1357666941282D+00  5.0731634882768D-01
    66  6.5000000000000D-01  1.1064611041514D+00  5.2927151859967D-01
    67  6.6000000000000D-01  1.0760521197206D+00  5.5150849277433D-01
    68  6.7000000000000D-01  1.0445887873821D+00  5.7407459448291D-01
    69  6.8000000000000D-01  1.0121227554628D+00  5.9701444529652D-01
    70  6.9000000000000D-01  9.7870828303241D-01  6.2036910894980D-01
    71  7.0000000000000D-01  9.4440223173072D-01  6.4417526661884D-01
    72  7.1000000000000D-01  9.0926403919093D-01  6.6846443275434D-01
    73  7.2000000000000D-01  8.7335567296599D-01  6.9326222000901D-01
    74  7.3000000000000D-01  8.3674156406116D-01  7.1858766123544D-01
    75  7.4000000000000D-01  7.9948851939264D-01  7.4445259586605D-01
    76  7.5000000000000D-01  7.6166561272298D-01  7.7086112723728D-01
    77  7.6000000000000D-01  7.2334405386980D-01  7.9780915658631D-01
    78  7.7000000000000D-01  6.8459703624092D-01  8.2528399854353D-01
    79  7.8000000000000D-01  6.4549956301388D-01  8.5326408197753D-01
    80  7.9000000000000D-01  6.0612825254813D-01  8.8171873903408D-01
    81  8.0000000000000D-01  5.6656112388921D-01  9.1060808416071D-01
    82  8.1000000000000D-01  5.2687736349507D-01  9.3988298383127D-01
    83  8.2000000000000D-01  4.8715707457858D-01  9.6948511660604D-01
    84  8.3000000000000D-01  4.4748101071561D-01  9.9934712208641D-01
    85  8.4000000000000D-01  4.0793029561050D-01  1.0293928362716D+00
    86  8.5000000000000D-01  3.6858613113614D-01  1.0595376098100D+00
    87  8.6000000000000D-01  3.2952949597087D-01  1.0896887046758D+00
    88  8.7000000000000D-01  2.9084083733529D-01  1.1197457639113D+00
    89  8.8000000000000D-01  2.5259975848523D-01  1.1496013482625D+00
    90  8.9000000000000D-01  2.1488470473930D-01  1.1791415328279D+00
    91  9.0000000000000D-01  1.7777265090799D-01  1.2082465562346D+00
    92  9.1000000000000D-01  1.4133879304270D-01  1.2367915143810D+00
    93  9.2000000000000D-01  1.0565624743612D-01  1.2646470904365D+00
    94  9.3000000000000D-01  7.0795759776366D-02  1.2916803125864D+00
    95  9.4000000000000D-01  3.6825427287760D-02  1.3177553309555D+00
    96  9.5000000000000D-01  3.8104365765196D-03  1.3427342052434D+00
    97  9.6000000000000D-01 -2.8187180258301D-02  1.3664776948620D+00
    98  9.7000000000000D-01 -5.9108768889173D-02  1.3888460437822D+00
    99  9.8000000000000D-01 -8.8899253284719D-02  1.4096997528711D+00
   100  9.9000000000000D-01 -1.1750731166505D-01  1.4289003332216D+00
   101  1.0000000000000D+00 -1.4488552638225D-01  1.4463110348500D+00
   102  1.0100000000000D+00 -1.7099050658581D-01  1.4617975461491D+00
   103  1.0200000000000D+00 -1.9578298292302D-01  1.4752286606080D+00
   104  1.0300000000000D+00 -2.1922787394328D-01  1.4864769085262D+00
   105  1.0400000000000D+00 -2.4129432433768D-01  1.4954191528270D+00
   106  1.0500000000000D+00 -2.6195571559752D-01  1.5019371494267D+00
   107  1.0600000000000D+00 -2.8118965015722D-01  1.5059180740677D+00
   108  1.0700000000000D+00 -2.9897791059331D-01  1.5072550190499D+00
   109  1.0800000000000D+00 -3.1530639587808D-01  1.5058474645769D+00
   110  1.0900000000000D+00 -3.3016503723034D-01  1.5016017310603D+00
   111  1.1000000000000D+00 -3.4354769651614D-01  1.4944314199263D+00
   112  1.1100000000000D+00 -3.5545205060203D-01  1.4842578517627D+00
   113  1.1200000000000D+00 -3.6587946544569D-01  1.4710105116913D+00
   114  1.1300000000000D+00 -3.7483486404819D-01  1.4546275127598D+00
   115  1.1400000000000D+00 -3.8232659272508D-01  1.4350560889212D+00
   116  1.1500000000000D+00 -3.8836629034273D-01  1.4122531294910D+00
   117  1.1600000000000D+00 -3.9296876531275D-01  1.3861857670527D+00
   118  1.1700000000000D+00 -3.9615188523922D-01  1.3568320307633D+00
   119  1.1800000000000D+00 -3.9793648406919D-01  1.3241815762458D+00
   120  1.1900000000000D+00 -3.9834629139339D-01  1.2882365019919D+00
   121  1.2000000000000D+00 -3.9740788838357D-01  1.2490122611631D+00
   122  1.2100000000000D+00 -3.9515069444642D-01  1.2065386754549D+00
   123  1.2200000000000D+00 -3.9160698805337D-01  1.1608610547200D+00
   124  1.2300000000000D+00 -3.8681196449924D-01  1.1120414227561D+00
   125  1.2400000000000D+00 -3.8080383289460D-01  1.0601598474961D+00
   126  1.2500000000000D+00 -3.7362395313321D-01  1.0053158668279D+00
   127  1.2600000000000D+00 -3.6531701231227D-01  9.4762999579649D-01
   128  1.2700000000000D+00 -3.5593123985677D-01  8.8724529981756D-01
   129  1.2800000000000D+00 -3.4551865746067D-01  8.2432900493943D-01
   130  1.2900000000000D+00 -3.3413535833821D-01  7.5907410934529D-01
   131  1.3000000000000D+00 -3.2184181034677D-01  6.9170096045453D-01
   132  1.3100000000000D+00 -3.0870317210816D-01  6.2245873885459D-01
   133  1.3200000000000D+00 -2.9478960999460D-01  5.5162678504430D-01
   134  1.3300000000000D+00 -2.8017660358785D-01  4.7951570376794D-01
   135  1.3400000000000D+00 -2.6494521888329D-01  4.0646814556459D-01
   136  1.3500000000000D+00 -2.4918232936854D-01  3.3285916880310D-01
   137  1.3600000000000D+00 -2.3298076205304D-01  2.5909607256275D-01
   138  1.3700000000000D+00 -2.1643933464479D-01  1.8561754496587D-01
   139  1.3800000000000D+00 -1.9966275645907D-01  1.1289199843104D-01
   140  1.3900000000000D+00 -1.8276135233327D-01  4.1414907344800D-02
   141  1.4000000000000D+00 -1.6585056322566D-01 -2.8295059981698D-02
   142  1.4100000000000D+00 -1.4905018489138D-01 -9.5701290612432D-02
   143  1.4200000000000D+00 -1.3248327742052D-01 -1.6025615369528D-01
   144  1.4300000000000D+00 -1.1627469562460D-01 -2.2140982824638D-01
   145  1.4400000000000D+00 -1.0054916971966D-01 -2.7862134216881D-01
   146  1.4500000000000D+00 -8.5428844569863D-02 -3.3137223390678D-01
   147  1.4600000000000D+00 -7.1030241295116D-02 -3.7918296760052D-01
   148  1.4700000000000D+00 -5.7460399074211D-02 -4.2163326765079D-01
   149  1.4800000000000D+00 -4.4812808020567D-02 -4.5838309708319D-01
   150  1.4900000000000D+00 -3.3162222582436D-02 -4.8919871703339D-01
   151  1.5000000000000D+00 -2.2553787537161D-02 -5.1400949665007D-01
   152  1.5100000000000D+00 -1.3003786743261D-02 -5.3289929194389D-01
   153  1.5200000000000D+00 -4.5054619531241D-03 -5.4606865010335D-01
   154  1.5300000000000D+00  2.9633204368468D-03 -5.5379089751478D-01
   155  1.5400000000000D+00  9.4333910997043D-03 -5.5637334215665D-01
   156  1.5500000000000D+00  1.4934334806378D-02 -5.5410526256454D-01
   157  1.5600000000000D+00  1.9486246888266D-02 -5.4721479528552D-01
   158  1.5700000000000D+00  2.3130122693131D-02 -5.3603173618334D-01
   159  1.5800000000000D+00  2.5935361400192D-02 -5.2102826755055D-01
   160  1.5900000000000D+00  2.7965129627695D-02 -5.0263288229605D-01
   161  1.6000000000000D+00  2.9272981251865D-02 -4.8121276977029D-01
   162  1.6100000000000D+00  2.9919187950845D-02 -4.5716274229303D-01
   163  1.6200000000000D+00  2.9969261649733D-02 -4.3089791682194D-01
   164  1.6300000000000D+00  2.9489627838186D-02 -4.0283091381010D-01
   165  1.6400000000000D+00  2.8547787341218D-02 -3.7337340568257D-01
   166  1.6500000000000D+00  2.7211905052834D-02 -3.4293457206906D-01
   167  1.6600000000000D+00  2.5550031594388D-02 -3.1191756743793D-01
   168  1.6700000000000D+00  2.3629424751202D-02 -2.8071652952848D-01
   169  1.6800000000000D+00  2.1515887672990D-02 -2.4971367038476D-01
   170  1.6900000000000D+00  1.9273122696002D-02 -2.1927643995964D-01
   171  1.7000000000000D+00  1.6962109413775D-02 -1.8975480075442D-01
   172  1.7100000000000D+00  1.4640509186507D-02 -1.6147862300219D-01
   173  1.7200000000000D+00  1.2362104308177D-02 -1.3475523583532D-01
   174  1.7300000000000D+00  1.0176272354558D-02 -1.0986713672406D-01
   175  1.7400000000000D+00  8.1275044658604D-03 -8.7069896995127D-02
   176  1.7500000000000D+00  6.2549665534296D-03 -6.6590259036909D-02
   177  1.7600000000000D+00  4.5932944314760D-03 -4.8636852327593D-02
   178  1.7700000000000D+00  3.1673182698030D-03 -3.3346995547669D-02
   179  1.7800000000000D+00  1.9919440626455D-03 -2.0791490808291D-02
   180  1.7900000000000D+00  1.0955014235804D-03 -1.1204045976503D-02
   181  1.8000000000000D+00  5.0700871021737D-04 -4.8460370342950D-03
   182  1.8100000000000D+00  1.9435035977874D-04 -1.4350157661408D-03
   183  1.8200000000000D+00  5.8745861198280D-05 -8.0127365685803D-05
   184  1.8300000000000D+00  9.2841401508273D-06  1.5363840653306D-04
   185  1.8400000000000D+00 -1.5057400805379D-07 -1.4032735196551D-05
   186  1.8500000000000D+00  7.2834872658400D-07 -7.2710361557091D-05
   187  1.8600000000000D+00  1.7344424985583D-07 -8.9376157406980D-06
   188  1.8700000000000D+00  2.9340140603620D-07  1.1489357872813D-05
   189  1.8800000000000D+00  8.0382620131835D-08  5.1096297816512D-06
   190  1.8900000000000D+00 -2.1237810229967D-07  7.9307399172629D-07
   191  1.9000000000000D+00 -1.7288541245443D-07  6.4559821696220D-07
   192  1.9100000000000D+00  0.0000000000000D+00  0.0000000000000D+00
   193  1.9200000000000D+00  0.0000000000000D+00  0.0000000000000D+00
   194  1.9300000000000D+00  0.0000000000000D+00  0.0000000000000D+00
   195  1.9400000000000D+00  0.0000000000000D+00  0.0000000000000D+00
   196  1.9500000000000D+00  0.0000000000000D+00  0.0000000000000D+00
   197  1.9600000000000D+00  0.0000000000000D+00  0.0000000000000D+00
   198  1.9700000000000D+00  0.0000000000000D+00  0.0000000000000D+00
   199  1.9800000000000D+00  0.0000000000000D+00  0.0000000000000D+00
   200  1.9900000000000D+00  0.0000000000000D+00  0.0000000000000D+00
   201  2.0000000000000D+00  0.0000000000000D+00  0.0000000000000D+00
   202  2.0100000000000D+00  0.0000000000000D+00  0.0000000000000D+00
   203  2.0200000000000D+00  0.0000000000000D+00  0.0000000000000D+00
   204  2.0300000000000D+00  0.0000000000000D+00  0.0000000000000D+00
   205  2.0400000000000D+00  0.0000000000000D+00  0.0000000000000D+00
   206  2.0500000000000D+00  0.0000000000000D+00  0.0000000000000D+00
   207  2.0600000000000D+00  0.0000000000000D+00  0.0000000000000D+00
   208  2.0700000000000D+00  0.0000000000000D+00  0.0000000000000D+00
   209  2.0800000000000D+00  0.0000000000000D+00  0.0000000000000D+00
   210  2.0900000000000D+00  0.0000000000000D+00  0.0000000000000D+00
   211  2.1000000000000D+00  0.0000000000000D+00  0.0000000000000D+00
   212  2.1100000000000D+00  0.0000000000000D+00  0.0000000000000D+00
   213  2.1200000000000D+00  0.0000000000000D+00  0.0000000000000D+00
   214  2.1300000000000D+00  0.0000000000000D+00  0.0000000000000D+00
   215  2.1400000000000D+00  0.0000000000000D+00  0.0000000000000D+00
   216  2.1500000000000D+00  0.0000000000000D+00  0.0000000000000D+00
   217  2.1600000000000D+00  0.0000000000000D+00  0.0000000000000D+00
   218  2.1700000000000D+00  0.0000000000000D+00  0.0000000000000D+00
   219  2.1800000000000D+00  0.0000000000000D+00  0.0000000000000D+00
   220  2.1900000000000D+00  0.0000000000000D+00  0.0000000000000D+00
   221  2.2000000000000D+00  0.0000000000000D+00  0.0000000000000D+00
   222  2.2100000000000D+00  0.0000000000000D+00  0.0000000000000D+00
   223  2.2200000000000D+00  0.0000000000000D+00  0.0000000000000D+00
   224  2.2300000000000D+00  0.0000000000000D+00  0.0000000000000D+00
   225  2.2400000000000D+00  0.0000000000000D+00  0.0000000000000D+00
   226  2.2500000000000D+00  0.0000000000000D+00  0.0000000000000D+00
   227  2.2600000000000D+00  0.0000000000000D+00  0.0000000000000D+00
   228  2.2700000000000D+00  0.0000000000000D+00  0.0000000000000D+00
   229  2.2800000000000D+00  0.0000000000000D+00  0.0000000000000D+00
   230  2.2900000000000D+00  0.0000000000000D+00  0.0000000000000D+00
   231  2.3000000000000D+00  0.0000000000000D+00  0.0000000000000D+00
   232  2.3100000000000D+00  0.0000000000000D+00  0.0000000000000D+00
   233  2.3200000000000D+00  0.0000000000000D+00  0.0000000000000D+00
   234  2.3300000000000D+00  0.0000000000000D+00  0.0000000000000D+00
   235  2.3400000000000D+00  0.0000000000000D+00  0.0000000000000D+00
   236  2.3500000000000D+00  0.0000000000000D+00  0.0000000000000D+00
   237  2.3600000000000D+00  0.0000000000000D+00  0.0000000000000D+00
   238  2.3700000000000D+00  0.0000000000000D+00  0.0000000000000D+00
   239  2.3800000000000D+00  0.0000000000000D+00  0.0000000000000D+00
   240  2.3900000000000D+00  0.0000000000000D+00  0.0000000000000D+00
   241  2.4000000000000D+00  0.0000000000000D+00  0.0000000000000D+00
   242  2.4100000000000D+00  0.0000000000000D+00  0.0000000000000D+00
   243  2.4200000000000D+00  0.0000000000000D+00  0.0000000000000D+00
   244  2.4300000000000D+00  0.0000000000000D+00  0.0000000000000D+00
   245  2.4400000000000D+00  0.0000000000000D+00  0.0000000000000D+00
   246  2.4500000000000D+00  0.0000000000000D+00  0.0000000000000D+00
   247  2.4600000000000D+00  0.0000000000000D+00  0.0000000000000D+00
   248  2.4700000000000D+00  0.0000000000000D+00  0.0000000000000D+00
   249  2.4800000000000D+00  0.0000000000000D+00  0.0000000000000D+00
   250  2.4900000000000D+00  0.0000000000000D+00  0.0000000000000D+00
   251  2.5000000000000D+00  0.0000000000000D+00  0.0000000000000D+00
   252  2.5100000000000D+00  0.0000000000000D+00  0.0000000000000D+00
   253  2.5200000000000D+00  0.0000000000000D+00  0.0000000000000D+00
   254  2.5300000000000D+00  0.0000000000000D+00  0.0000000000000D+00
   255  2.5400000000000D+00  0.0000000000000D+00  0.0000000000000D+00
   256  2.5500000000000D+00  0.0000000000000D+00  0.0000000000000D+00
   257  2.5600000000000D+00  0.0000000000000D+00  0.0000000000000D+00
   258  2.5700000000000D+00  0.0000000000000D+00  0.0000000000000D+00
   259  2.5800000000000D+00  0.0000000000000D+00  0.0000000000000D+00
   260  2.5900000000000D+00  0.0000000000000D+00  0.0000000000000D+00
   261  2.6000000000000D+00  0.0000000000000D+00  0.0000000000000D+00
   262  2.6100000000000D+00  0.0000000000000D+00  0.0000000000000D+00
   263  2.6200000000000D+00  0.0000000000000D+00  0.0000000000000D+00
   264  2.6300000000000D+00  0.0000000000000D+00  0.0000000000000D+00
   265  2.6400000000000D+00  0.0000000000000D+00  0.0000000000000D+00
   266  2.6500000000000D+00  0.0000000000000D+00  0.0000000000000D+00
   267  2.6600000000000D+00  0.0000000000000D+00  0.0000000000000D+00
   268  2.6700000000000D+00  0.0000000000000D+00  0.0000000000000D+00
   269  2.6800000000000D+00  0.0000000000000D+00  0.0000000000000D+00
   270  2.6900000000000D+00  0.0000000000000D+00  0.0000000000000D+00
   271  2.7000000000000D+00  0.0000000000000D+00  0.0000000000000D+00
   272  2.7100000000000D+00  0.0000000000000D+00  0.0000000000000D+00
   273  2.7200000000000D+00  0.0000000000000D+00  0.0000000000000D+00
   274  2.7300000000000D+00  0.0000000000000D+00  0.0000000000000D+00
   275  2.7400000000000D+00  0.0000000000000D+00  0.0000000000000D+00
   276  2.7500000000000D+00  0.0000000000000D+00  0.0000000000000D+00
   277  2.7600000000000D+00  0.0000000000000D+00  0.0000000000000D+00
   278  2.7700000000000D+00  0.0000000000000D+00  0.0000000000000D+00
   279  2.7800000000000D+00  0.0000000000000D+00  0.0000000000000D+00
   280  2.7900000000000D+00  0.0000000000000D+00  0.0000000000000D+00
   281  2.8000000000000D+00  0.0000000000000D+00  0.0000000000000D+00
   282  2.8100000000000D+00  0.0000000000000D+00  0.0000000000000D+00
   283  2.8200000000000D+00  0.0000000000000D+00  0.0000000000000D+00
   284  2.8300000000000D+00  0.0000000000000D+00  0.0000000000000D+00
   285  2.8400000000000D+00  0.0000000000000D+00  0.0000000000000D+00
   286  2.8500000000000D+00  0.0000000000000D+00  0.0000000000000D+00
   287  2.8600000000000D+00  0.0000000000000D+00  0.0000000000000D+00
   288  2.8700000000000D+00  0.0000000000000D+00  0.0000000000000D+00
   289  2.8800000000000D+00  0.0000000000000D+00  0.0000000000000D+00
   290  2.8900000000000D+00  0.0000000000000D+00  0.0000000000000D+00
   291  2.9000000000000D+00  0.0000000000000D+00  0.0000000000000D+00
   292  2.9100000000000D+00  0.0000000000000D+00  0.0000000000000D+00
   293  2.9200000000000D+00  0.0000000000000D+00  0.0000000000000D+00
   294  2.9300000000000D+00  0.0000000000000D+00  0.0000000000000D+00
   295  2.9400000000000D+00  0.0000000000000D+00  0.0000000000000D+00
   296  2.9500000000000D+00  0.0000000000000D+00  0.0000000000000D+00
   297  2.9600000000000D+00  0.0000000000000D+00  0.0000000000000D+00
   298  2.9700000000000D+00  0.0000000000000D+00  0.0000000000000D+00
   299  2.9800000000000D+00  0.0000000000000D+00  0.0000000000000D+00
   300  2.9900000000000D+00  0.0000000000000D+00  0.0000000000000D+00
   301  3.0000000000000D+00  0.0000000000000D+00  0.0000000000000D+00
   302  3.0100000000000D+00  0.0000000000000D+00  0.0000000000000D+00
   303  3.0200000000000D+00  0.0000000000000D+00  0.0000000000000D+00
   304  3.0300000000000D+00  0.0000000000000D+00  0.0000000000000D+00
   305  3.0400000000000D+00  0.0000000000000D+00  0.0000000000000D+00
   306  3.0500000000000D+00  0.0000000000000D+00  0.0000000000000D+00
   307  3.0600000000000D+00  0.0000000000000D+00  0.0000000000000D+00
   308  3.0700000000000D+00  0.0000000000000D+00  0.0000000000000D+00
   309  3.0800000000000D+00  0.0000000000000D+00  0.0000000000000D+00
   310  3.0900000000000D+00  0.0000000000000D+00  0.0000000000000D+00
   311  3.1000000000000D+00  0.0000000000000D+00  0.0000000000000D+00
   312  3.1100000000000D+00  0.0000000000000D+00  0.0000000000000D+00
   313  3.1200000000000D+00  0.0000000000000D+00  0.0000000000000D+00
   314  3.1300000000000D+00  0.0000000000000D+00  0.0000000000000D+00
   315  3.1400000000000D+00  0.0000000000000D+00  0.0000000000000D+00
   316  3.1500000000000D+00  0.0000000000000D+00  0.0000000000000D+00
   317  3.1600000000000D+00  0.0000000000000D+00  0.0000000000000D+00
   318  3.1700000000000D+00  0.0000000000000D+00  0.0000000000000D+00
   319  3.1800000000000D+00  0.0000000000000D+00  0.0000000000000D+00
   320  3.1900000000000D+00  0.0000000000000D+00  0.0000000000000D+00
   321  3.2000000000000D+00  0.0000000000000D+00  0.0000000000000D+00
   322  3.2100000000000D+00  0.0000000000000D+00  0.0000000000000D+00
   323  3.2200000000000D+00  0.0000000000000D+00  0.0000000000000D+00
   324  3.2300000000000D+00  0.0000000000000D+00  0.0000000000000D+00
   325  3.2400000000000D+00  0.0000000000000D+00  0.0000000000000D+00
   326  3.2500000000000D+00  0.0000000000000D+00  0.0000000000000D+00
   327  3.2600000000000D+00  0.0000000000000D+00  0.0000000000000D+00
   328  3.2700000000000D+00  0.0000000000000D+00  0.0000000000000D+00
   329  3.2800000000000D+00  0.0000000000000D+00  0.0000000000000D+00
   330  3.2900000000000D+00  0.0000000000000D+00  0.0000000000000D+00
   331  3.3000000000000D+00  0.0000000000000D+00  0.0000000000000D+00
   332  3.3100000000000D+00  0.0000000000000D+00  0.0000000000000D+00
   333  3.3200000000000D+00  0.0000000000000D+00  0.0000000000000D+00
   334  3.3300000000000D+00  0.0000000000000D+00  0.0000000000000D+00
   335  3.3400000000000D+00  0.0000000000000D+00  0.0000000000000D+00
   336  3.3500000000000D+00  0.0000000000000D+00  0.0000000000000D+00
   337  3.3600000000000D+00  0.0000000000000D+00  0.0000000000000D+00
   338  3.3700000000000D+00  0.0000000000000D+00  0.0000000000000D+00
   339  3.3800000000000D+00  0.0000000000000D+00  0.0000000000000D+00
   340  3.3900000000000D+00  0.0000000000000D+00  0.0000000000000D+00
   341  3.4000000000000D+00  0.0000000000000D+00  0.0000000000000D+00
   342  3.4100000000000D+00  0.0000000000000D+00  0.0000000000000D+00
   343  3.4200000000000D+00  0.0000000000000D+00  0.0000000000000D+00
   344  3.4300000000000D+00  0.0000000000000D+00  0.0000000000000D+00
   345  3.4400000000000D+00  0.0000000000000D+00  0.0000000000000D+00
   346  3.4500000000000D+00  0.0000000000000D+00  0.0000000000000D+00
   347  3.4600000000000D+00  0.0000000000000D+00  0.0000000000000D+00
   348  3.4700000000000D+00  0.0000000000000D+00  0.0000000000000D+00
   349  3.4800000000000D+00  0.0000000000000D+00  0.0000000000000D+00
   350  3.4900000000000D+00  0.0000000000000D+00  0.0000000000000D+00
   351  3.5000000000000D+00  0.0000000000000D+00  0.0000000000000D+00
   352  3.5100000000000D+00  0.0000000000000D+00  0.0000000000000D+00
   353  3.5200000000000D+00  0.0000000000000D+00  0.0000000000000D+00
   354  3.5300000000000D+00  0.0000000000000D+00  0.0000000000000D+00
   355  3.5400000000000D+00  0.0000000000000D+00  0.0000000000000D+00
   356  3.5500000000000D+00  0.0000000000000D+00  0.0000000000000D+00
   357  3.5600000000000D+00  0.0000000000000D+00  0.0000000000000D+00
   358  3.5700000000000D+00  0.0000000000000D+00  0.0000000000000D+00
   359  3.5800000000000D+00  0.0000000000000D+00  0.0000000000000D+00
   360  3.5900000000000D+00  0.0000000000000D+00  0.0000000000000D+00
   361  3.6000000000000D+00  0.0000000000000D+00  0.0000000000000D+00
   362  3.6100000000000D+00  0.0000000000000D+00  0.0000000000000D+00
   363  3.6200000000000D+00  0.0000000000000D+00  0.0000000000000D+00
   364  3.6300000000000D+00  0.0000000000000D+00  0.0000000000000D+00
   365  3.6400000000000D+00  0.0000000000000D+00  0.0000000000000D+00
   366  3.6500000000000D+00  0.0000000000000D+00  0.0000000000000D+00
   367  3.6600000000000D+00  0.0000000000000D+00  0.0000000000000D+00
   368  3.6700000000000D+00  0.0000000000000D+00  0.0000000000000D+00
   369  3.6800000000000D+00  0.0000000000000D+00  0.0000000000000D+00
   370  3.6900000000000D+00  0.0000000000000D+00  0.0000000000000D+00
   371  3.7000000000000D+00  0.0000000000000D+00  0.0000000000000D+00
   372  3.7100000000000D+00  0.0000000000000D+00  0.0000000000000D+00
   373  3.7200000000000D+00  0.0000000000000D+00  0.0000000000000D+00
   374  3.7300000000000D+00  0.0000000000000D+00  0.0000000000000D+00
   375  3.7400000000000D+00  0.0000000000000D+00  0.0000000000000D+00
   376  3.7500000000000D+00  0.0000000000000D+00  0.0000000000000D+00
   377  3.7600000000000D+00  0.0000000000000D+00  0.0000000000000D+00
   378  3.7700000000000D+00  0.0000000000000D+00  0.0000000000000D+00
   379  3.7800000000000D+00  0.0000000000000D+00  0.0000000000000D+00
   380  3.7900000000000D+00  0.0000000000000D+00  0.0000000000000D+00
   381  3.8000000000000D+00  0.0000000000000D+00  0.0000000000000D+00
   382  3.8100000000000D+00  0.0000000000000D+00  0.0000000000000D+00
   383  3.8200000000000D+00  0.0000000000000D+00  0.0000000000000D+00
   384  3.8300000000000D+00  0.0000000000000D+00  0.0000000000000D+00
   385  3.8400000000000D+00  0.0000000000000D+00  0.0000000000000D+00
   386  3.8500000000000D+00  0.0000000000000D+00  0.0000000000000D+00
   387  3.8600000000000D+00  0.0000000000000D+00  0.0000000000000D+00
   388  3.8700000000000D+00  0.0000000000000D+00  0.0000000000000D+00
   389  3.8800000000000D+00  0.0000000000000D+00  0.0000000000000D+00
   390  3.8900000000000D+00  0.0000000000000D+00  0.0000000000000D+00
   391  3.9000000000000D+00  0.0000000000000D+00  0.0000000000000D+00
   392  3.9100000000000D+00  0.0000000000000D+00  0.0000000000000D+00
   393  3.9200000000000D+00  0.0000000000000D+00  0.0000000000000D+00
   394  3.9300000000000D+00  0.0000000000000D+00  0.0000000000000D+00
   395  3.9400000000000D+00  0.0000000000000D+00  0.0000000000000D+00
   396  3.9500000000000D+00  0.0000000000000D+00  0.0000000000000D+00
   397  3.9600000000000D+00  0.0000000000000D+00  0.0000000000000D+00
   398  3.9700000000000D+00  0.0000000000000D+00  0.0000000000000D+00
   399  3.9800000000000D+00  0.0000000000000D+00  0.0000000000000D+00
   400  3.9900000000000D+00  0.0000000000000D+00  0.0000000000000D+00
   401  4.0000000000000D+00  0.0000000000000D+00  0.0000000000000D+00
   402  4.0100000000000D+00  0.0000000000000D+00  0.0000000000000D+00
   403  4.0200000000000D+00  0.0000000000000D+00  0.0000000000000D+00
   404  4.0300000000000D+00  0.0000000000000D+00  0.0000000000000D+00
   405  4.0400000000000D+00  0.0000000000000D+00  0.0000000000000D+00
   406  4.0500000000000D+00  0.0000000000000D+00  0.0000000000000D+00
   407  4.0600000000000D+00  0.0000000000000D+00  0.0000000000000D+00
   408  4.0700000000000D+00  0.0000000000000D+00  0.0000000000000D+00
   409  4.0800000000000D+00  0.0000000000000D+00  0.0000000000000D+00
   410  4.0900000000000D+00  0.0000000000000D+00  0.0000000000000D+00
   411  4.1000000000000D+00  0.0000000000000D+00  0.0000000000000D+00
   412  4.1100000000000D+00  0.0000000000000D+00  0.0000000000000D+00
   413  4.1200000000000D+00  0.0000000000000D+00  0.0000000000000D+00
   414  4.1300000000000D+00  0.0000000000000D+00  0.0000000000000D+00
   415  4.1400000000000D+00  0.0000000000000D+00  0.0000000000000D+00
   416  4.1500000000000D+00  0.0000000000000D+00  0.0000000000000D+00
   417  4.1600000000000D+00  0.0000000000000D+00  0.0000000000000D+00
   418  4.1700000000000D+00  0.0000000000000D+00  0.0000000000000D+00
   419  4.1800000000000D+00  0.0000000000000D+00  0.0000000000000D+00
   420  4.1900000000000D+00  0.0000000000000D+00  0.0000000000000D+00
   421  4.2000000000000D+00  0.0000000000000D+00  0.0000000000000D+00
   422  4.2100000000000D+00  0.0000000000000D+00  0.0000000000000D+00