Rh    ONCVPSP-3.3.0  r_core=   1.40787   1.40787   1.35838
     45.0000     17.0000      220408    zatom,zion,pspd
     8       2   2     4   600     0    pspcod,pspxc,lmax,lloc,mmax,r2well
  5.99000000  0.00000000  0.00000000    rchrg fchrg qchrg
     2     2     2     0     0    nproj
     1     1           extension_switch
   0                         1.6239777226907D+01  1.4982235106704D+00
     1  0.0000000000000D+00  1.7278278807709D-10 -3.9944697549643D-10
     2  1.0000000000000D-02  7.9468987711620D-02 -3.5965950390602D-02
     3  2.0000000000000D-02  1.5876764083227D-01 -7.1766844887120D-02
     4  3.0000000000000D-02  2.3772585004394D-01 -1.0723773850489D-01
     5  4.0000000000000D-02  3.1617395915199D-01 -1.4221391460994D-01
     6  5.0000000000000D-02  3.9394299804594D-01 -1.7653101532103D-01
     7  6.0000000000000D-02  4.7086492321521D-01 -2.1002519109715D-01
     8  7.0000000000000D-02  5.4677286813295D-01 -2.4253327543102D-01
     9  8.0000000000000D-02  6.2150140564824D-01 -2.7389299017013D-01
    10  9.0000000000000D-02  6.9488682431499D-01 -3.0394318649594D-01
    11  1.0000000000000D-01  7.6676742033638D-01 -3.3252412601602D-01
    12  1.1000000000000D-01  8.3698380652103D-01 -3.5947780576943D-01
    13  1.2000000000000D-01  9.0537923933280D-01 -3.8464833022020D-01
    14  1.3000000000000D-01  9.7179996477572D-01 -4.0788233252544D-01
    15  1.4000000000000D-01  1.0360955834916D+00 -4.2902944652443D-01
    16  1.5000000000000D-01  1.0981194350655D+00 -4.4794283001014D-01
    17  1.6000000000000D-01  1.1577290011379D+00 -4.6447973892904D-01
    18  1.7000000000000D-01  1.2147863265172D+00 -4.7850215121656D-01
    19  1.8000000000000D-01  1.2691584570746D+00 -4.8987743802806D-01
    20  1.9000000000000D-01  1.3207178927971D+00 -4.9847907917902D-01
    21  2.0000000000000D-01  1.3693430539676D+00 -5.0418741867544D-01
    22  2.1000000000000D-01  1.4149187580518D+00 -5.0689045530789D-01
    23  2.2000000000000D-01  1.4573367044925D+00 -5.0648466241193D-01
    24  2.3000000000000D-01  1.4964959642574D+00 -5.0287583007511D-01
    25  2.4000000000000D-01  1.5323034706577D+00 -4.9597992230741D-01
    26  2.5000000000000D-01  1.5646745076524D+00 -4.8572394099728D-01
    27  2.6000000000000D-01  1.5935331915888D+00 -4.7204678786196D-01
    28  2.7000000000000D-01  1.6188129421047D+00 -4.5490011507312D-01
    29  2.8000000000000D-01  1.6404569377287D+00 -4.3424915481024D-01
    30  2.9000000000000D-01  1.6584185515780D+00 -4.1007351766754D-01
    31  3.0000000000000D-01  1.6726617624599D+00 -3.8236794962484D-01
    32  3.1000000000000D-01  1.6831615366416D+00 -3.5114303719202D-01
    33  3.2000000000000D-01  1.6899041755600D+00 -3.1642585035516D-01
    34  3.3000000000000D-01  1.6928876248119D+00 -2.7826051309284D-01
    35  3.4000000000000D-01  1.6921217398738D+00 -2.3670869149438D-01
    36  3.5000000000000D-01  1.6876285041778D+00 -1.9184998989865D-01
    37  3.6000000000000D-01  1.6794421953890D+00 -1.4378224598016D-01
    38  3.7000000000000D-01  1.6676094960084D+00 -9.2621716337913D-02
    39  3.8000000000000D-01  1.6521895447501D+00 -3.8503144884556D-02
    40  3.9000000000000D-01  1.6332539255183D+00  1.8420292812591D-02
    41  4.0000000000000D-01  1.6108865912276D+00  7.7977175131069D-02
    42  4.1000000000000D-01  1.5851837201759D+00  1.3997815477366D-01
    43  4.2000000000000D-01  1.5562535031786D+00  2.0421641763136D-01
    44  4.3000000000000D-01  1.5242158602079D+00  2.7046828261596D-01
    45  4.4000000000000D-01  1.4892020858496D+00  3.3849394366901D-01
    46  4.5000000000000D-01  1.4513544234739D+00  4.0803835382125D-01
    47  4.6000000000000D-01  1.4108255686310D+00  4.7883224980257D-01
    48  4.7000000000000D-01  1.3677781027986D+00  5.5059331430290D-01
    49  4.8000000000000D-01  1.3223838592411D+00  6.2302747157211D-01
    50  4.9000000000000D-01  1.2748232233687D+00  6.9583031063481D-01
    51  5.0000000000000D-01  1.2252843706070D+00  7.6868862900434D-01
    52  5.1000000000000D-01  1.1739624454036D+00  8.4128208841558D-01
    53  5.2000000000000D-01  1.1210586855910D+00  9.1328497278193D-01
    54  5.3000000000000D-01  1.0667794968937D+00  9.8436803732650D-01
    55  5.4000000000000D-01  1.0113354829101D+00  1.0542004366594D+00
    56  5.5000000000000D-01  9.5494043640027D-01  1.1224517184814D+00
    57  5.6000000000000D-01  8.9781029817015D-01  1.1887938686110D+00
    58  5.7000000000000D-01  8.4016209026036D-01  1.2529033921538D+00
    59  5.8000000000000D-01  7.8221283050235D-01  1.3144634148944D+00
    60  5.9000000000000D-01  7.2417843581179D-01  1.3731657883753D+00
    61  6.0000000000000D-01  6.6627262182923D-01  1.4287131816677D+00
    62  6.1000000000000D-01  6.0870580669604D-01  1.4808211425282D+00
    63  6.2000000000000D-01  5.5168402686279D-01  1.5292201104836D+00
    64  6.3000000000000D-01  4.9540787286746D-01  1.5736573644031D+00
    65  6.4000000000000D-01  4.4007145298938D-01  1.6138988872970D+00
    66  6.5000000000000D-01  3.8586139258082D-01  1.6497311314326D+00
    67  6.6000000000000D-01  3.3295587670162D-01  1.6809626673811D+00
    68  6.7000000000000D-01  2.8152374343464D-01  1.7074257012935D+00
    69  6.8000000000000D-01  2.3172363494067D-01  1.7289774455555D+00
    70  6.9000000000000D-01  1.8370321292361D-01  1.7455013289825D+00
    71  7.0000000000000D-01  1.3759844472310D-01  1.7569080338757D+00
    72  7.1000000000000D-01  9.3532965737926D-02  1.7631363485550D+00
    73  7.2000000000000D-01  5.1617523306318D-02  1.7641538254294D+00
    74  7.3000000000000D-01  1.1949506543432D-02  1.7599572362094D+00
    75  7.4000000000000D-01 -2.5387434040268D-02  1.7505728175279D+00
    76  7.5000000000000D-01 -6.0323674035205D-02  1.7360563019884D+00
    77  7.6000000000000D-01 -9.2803807391665D-02  1.7164927314806D+00
    78  7.7000000000000D-01 -1.2278674187420D-01  1.6919960514902D+00
    79  7.8000000000000D-01 -1.5024569694981D-01  1.6627084870566D+00
    80  7.9000000000000D-01 -1.7516810416620D-01  1.6287997029753D+00
    81  8.0000000000000D-01 -1.9755541090314D-01  1.5904657527943D+00
    82  8.1000000000000D-01 -2.1742278920379D-01  1.5479278230860D+00
    83  8.2000000000000D-01 -2.3479875220752D-01  1.5014307813751D+00
    84  8.3000000000000D-01 -2.4972468150278D-01  1.4512415379446D+00
    85  8.4000000000000D-01 -2.6225426948971D-01  1.3976472335099D+00
    86  8.5000000000000D-01 -2.7245288158031D-01  1.3409532664246D+00
    87  8.6000000000000D-01 -2.8039684376069D-01  1.2814811746472D+00
    88  8.7000000000000D-01 -2.8617266168897D-01  1.2195663891286D+00
    89  8.8000000000000D-01 -2.8987617809582D-01  1.1555558765731D+00
    90  8.9000000000000D-01 -2.9161167578737D-01  1.0898056906554D+00
    91  9.0000000000000D-01 -2.9149093401552D-01  1.0226784517317D+00
    92  9.1000000000000D-01 -2.8963224637377D-01  9.5454077585683D-01
    93  9.2000000000000D-01 -2.8615940869317D-01  8.8576067449683D-01
    94  9.3000000000000D-01 -2.8120068564914D-01  8.1670494670010D-01
    95  9.4000000000000D-01 -2.7488776494247D-01  7.4773658565458D-01
    96  9.5000000000000D-01 -2.6735470798501D-01  6.7921222150996D-01
    97  9.6000000000000D-01 -2.5873690600194D-01  6.1147962208079D-01
    98  9.7000000000000D-01 -2.4917005035152D-01  5.4487527255350D-01
    99  9.8000000000000D-01 -2.3878912567773D-01  4.7972205465010D-01
   100  9.9000000000000D-01 -2.2772743422535D-01  4.1632704477465D-01
   101  1.0000000000000D+00 -2.1611565928794D-01  3.5497944957272D-01
   102  1.0100000000000D+00 -2.0408097531783D-01  2.9594869603543D-01
   103  1.0200000000000D+00 -1.9174621170954D-01  2.3948269179719D-01
   104  1.0300000000000D+00 -1.7922907668136D-01  1.8580626963110D-01
   105  1.0400000000000D+00 -1.6664144700263D-01  1.3511982827894D-01
   106  1.0500000000000D+00 -1.5408872866281D-01  8.7598179976085D-02
   107  1.0600000000000D+00 -1.4166929272989D-01  4.3389612744709D-02
   108  1.0700000000000D+00 -1.2947398989291D-01  2.6151735228721D-03
   109  1.0800000000000D+00 -1.1758574632166D-01 -3.4631824085954D-02
   110  1.0900000000000D+00 -1.0607924254363D-01 -6.8286066104853D-02
   111  1.1000000000000D+00 -9.5020676295706D-02 -9.8310279120080D-02
   112  1.1100000000000D+00 -8.4467609199196D-02 -1.2469504933725D-01
   113  1.1200000000000D+00 -7.4468896349765D-02 -1.4745842517845D-01
   114  1.1300000000000D+00 -6.5064696898366D-02 -1.6664531143700D-01
   115  1.1400000000000D+00 -5.6286562965128D-02 -1.8232666487365D-01
   116  1.1500000000000D+00 -4.8157603218026D-02 -1.9459850368905D-01
   117  1.1600000000000D+00 -4.0692716695841D-02 -2.0358074518724D-01
   118  1.1700000000000D+00 -3.3898891606394D-02 -2.0941588804510D-01
   119  1.1800000000000D+00 -2.7775563298361D-02 -2.1226755692166D-01
   120  1.1900000000000D+00 -2.2315024663358D-02 -2.1231892943433D-01
   121  1.2000000000000D+00 -1.7502881773960D-02 -2.0977106659407D-01
   122  1.2100000000000D+00 -1.3318547026421D-02 -2.0484116905191D-01
   123  1.2200000000000D+00 -9.7357616109393D-03 -1.9776078255850D-01
   124  1.2300000000000D+00 -6.7231386420626D-03 -1.8877397711125D-01
   125  1.2400000000000D+00 -4.2447181334693D-03 -1.7813552449811D-01
   126  1.2500000000000D+00 -2.2605247755266D-03 -1.6610909947832D-01
   127  1.2600000000000D+00 -7.2711924876203D-04 -1.5296553011430D-01
   128  1.2700000000000D+00  4.0186900026459D-04 -1.3898113416675D-01
   129  1.2800000000000D+00  1.1752169165528D-03 -1.2443608735963D-01
   130  1.2900000000000D+00  1.6436747837806D-03 -1.0961314630196D-01
   131  1.3000000000000D+00  1.8593310536054D-03 -9.4795548764799D-02
   132  1.3100000000000D+00  1.8758217537062D-03 -8.0268238167364D-02
   133  1.3200000000000D+00  1.7469636720503D-03 -6.6312764940124D-02
   134  1.3300000000000D+00  1.5239781324855D-03 -5.3196492789538D-02
   135  1.3400000000000D+00  1.2525540088225D-03 -4.1161549900533D-02
   136  1.3500000000000D+00  9.7074084685475D-04 -3.0417138050632D-02
   137  1.3600000000000D+00  7.0900256573101D-04 -2.1141911287048D-02
   138  1.3700000000000D+00  4.8938080566453D-04 -1.3478487988926D-02
   139  1.3800000000000D+00  3.2188470713775D-04 -7.4902112406919D-03
   140  1.3900000000000D+00  2.1866855793168D-04 -3.3496398000300D-03
   141  1.4000000000000D+00  1.8573637183901D-04 -1.1846873266778D-03
   142  1.4100000000000D+00  1.4101499103909D-04 -3.4104629560413D-04
   143  1.4200000000000D+00  4.0853603856626D-05 -4.7037613684565D-05
   144  1.4300000000000D+00 -1.5089913458158D-05  1.0548782230890D-05
   145  1.4400000000000D+00 -4.3002135405131D-06  1.6295397643175D-06
   146  1.4500000000000D+00  3.6421306526264D-06 -3.8863717245603D-06
   147  1.4600000000000D+00 -7.9920886102132D-08  2.3302666749715D-07
   148  1.4700000000000D+00 -4.0609400220505D-07  1.1840550904740D-06
   149  1.4800000000000D+00  0.0000000000000D+00  0.0000000000000D+00
   150  1.4900000000000D+00  0.0000000000000D+00  0.0000000000000D+00
   151  1.5000000000000D+00  0.0000000000000D+00  0.0000000000000D+00
   152  1.5100000000000D+00  0.0000000000000D+00  0.0000000000000D+00
   153  1.5200000000000D+00  0.0000000000000D+00  0.0000000000000D+00
   154  1.5300000000000D+00  0.0000000000000D+00  0.0000000000000D+00
   155  1.5400000000000D+00  0.0000000000000D+00  0.0000000000000D+00
   156  1.5500000000000D+00  0.0000000000000D+00  0.0000000000000D+00
   157  1.5600000000000D+00  0.0000000000000D+00  0.0000000000000D+00
   158  1.5700000000000D+00  0.0000000000000D+00  0.0000000000000D+00
   159  1.5800000000000D+00  0.0000000000000D+00  0.0000000000000D+00
   160  1.5900000000000D+00  0.0000000000000D+00  0.0000000000000D+00
   161  1.6000000000000D+00  0.0000000000000D+00  0.0000000000000D+00
   162  1.6100000000000D+00  0.0000000000000D+00  0.0000000000000D+00
   163  1.6200000000000D+00  0.0000000000000D+00  0.0000000000000D+00
   164  1.6300000000000D+00  0.0000000000000D+00  0.0000000000000D+00
   165  1.6400000000000D+00  0.0000000000000D+00  0.0000000000000D+00
   166  1.6500000000000D+00  0.0000000000000D+00  0.0000000000000D+00
   167  1.6600000000000D+00  0.0000000000000D+00  0.0000000000000D+00
   168  1.6700000000000D+00  0.0000000000000D+00  0.0000000000000D+00
   169  1.6800000000000D+00  0.0000000000000D+00  0.0000000000000D+00
   170  1.6900000000000D+00  0.0000000000000D+00  0.0000000000000D+00
   171  1.7000000000000D+00  0.0000000000000D+00  0.0000000000000D+00
   172  1.7100000000000D+00  0.0000000000000D+00  0.0000000000000D+00
   173  1.7200000000000D+00  0.0000000000000D+00  0.0000000000000D+00
   174  1.7300000000000D+00  0.0000000000000D+00  0.0000000000000D+00
   175  1.7400000000000D+00  0.0000000000000D+00  0.0000000000000D+00
   176  1.7500000000000D+00  0.0000000000000D+00  0.0000000000000D+00
   177  1.7600000000000D+00  0.0000000000000D+00  0.0000000000000D+00
   178  1.7700000000000D+00  0.0000000000000D+00  0.0000000000000D+00
   179  1.7800000000000D+00  0.0000000000000D+00  0.0000000000000D+00
   180  1.7900000000000D+00  0.0000000000000D+00  0.0000000000000D+00
   181  1.8000000000000D+00  0.0000000000000D+00  0.0000000000000D+00
   182  1.8100000000000D+00  0.0000000000000D+00  0.0000000000000D+00
   183  1.8200000000000D+00  0.0000000000000D+00  0.0000000000000D+00
   184  1.8300000000000D+00  0.0000000000000D+00  0.0000000000000D+00
   185  1.8400000000000D+00  0.0000000000000D+00  0.0000000000000D+00
   186  1.8500000000000D+00  0.0000000000000D+00  0.0000000000000D+00
   187  1.8600000000000D+00  0.0000000000000D+00  0.0000000000000D+00
   188  1.8700000000000D+00  0.0000000000000D+00  0.0000000000000D+00
   189  1.8800000000000D+00  0.0000000000000D+00  0.0000000000000D+00
   190  1.8900000000000D+00  0.0000000000000D+00  0.0000000000000D+00
   191  1.9000000000000D+00  0.0000000000000D+00  0.0000000000000D+00
   192  1.9100000000000D+00  0.0000000000000D+00  0.0000000000000D+00
   193  1.9200000000000D+00  0.0000000000000D+00  0.0000000000000D+00
   194  1.9300000000000D+00  0.0000000000000D+00  0.0000000000000D+00
   195  1.9400000000000D+00  0.0000000000000D+00  0.0000000000000D+00
   196  1.9500000000000D+00  0.0000000000000D+00  0.0000000000000D+00
   197  1.9600000000000D+00  0.0000000000000D+00  0.0000000000000D+00
   198  1.9700000000000D+00  0.0000000000000D+00  0.0000000000000D+00
   199  1.9800000000000D+00  0.0000000000000D+00  0.0000000000000D+00
   200  1.9900000000000D+00  0.0000000000000D+00  0.0000000000000D+00
   201  2.0000000000000D+00  0.0000000000000D+00  0.0000000000000D+00
   202  2.0100000000000D+00  0.0000000000000D+00  0.0000000000000D+00
   203  2.0200000000000D+00  0.0000000000000D+00  0.0000000000000D+00
   204  2.0300000000000D+00  0.0000000000000D+00  0.0000000000000D+00
   205  2.0400000000000D+00  0.0000000000000D+00  0.0000000000000D+00
   206  2.0500000000000D+00  0.0000000000000D+00  0.0000000000000D+00
   207  2.0600000000000D+00  0.0000000000000D+00  0.0000000000000D+00
   208  2.0700000000000D+00  0.0000000000000D+00  0.0000000000000D+00
   209  2.0800000000000D+00  0.0000000000000D+00  0.0000000000000D+00
   210  2.0900000000000D+00  0.0000000000000D+00  0.0000000000000D+00
   211  2.1000000000000D+00  0.0000000000000D+00  0.0000000000000D+00
   212  2.1100000000000D+00  0.0000000000000D+00  0.0000000000000D+00
   213  2.1200000000000D+00  0.0000000000000D+00  0.0000000000000D+00
   214  2.1300000000000D+00  0.0000000000000D+00  0.0000000000000D+00
   215  2.1400000000000D+00  0.0000000000000D+00  0.0000000000000D+00
   216  2.1500000000000D+00  0.0000000000000D+00  0.0000000000000D+00
   217  2.1600000000000D+00  0.0000000000000D+00  0.0000000000000D+00
   218  2.1700000000000D+00  0.0000000000000D+00  0.0000000000000D+00
   219  2.1800000000000D+00  0.0000000000000D+00  0.0000000000000D+00
   220  2.1900000000000D+00  0.0000000000000D+00  0.0000000000000D+00
   221  2.2000000000000D+00  0.0000000000000D+00  0.0000000000000D+00
   222  2.2100000000000D+00  0.0000000000000D+00  0.0000000000000D+00
   223  2.2200000000000D+00  0.0000000000000D+00  0.0000000000000D+00
   224  2.2300000000000D+00  0.0000000000000D+00  0.0000000000000D+00
   225  2.2400000000000D+00  0.0000000000000D+00  0.0000000000000D+00
   226  2.2500000000000D+00  0.0000000000000D+00  0.0000000000000D+00
   227  2.2600000000000D+00  0.0000000000000D+00  0.0000000000000D+00
   228  2.2700000000000D+00  0.0000000000000D+00  0.0000000000000D+00
   229  2.2800000000000D+00  0.0000000000000D+00  0.0000000000000D+00
   230  2.2900000000000D+00  0.0000000000000D+00  0.0000000000000D+00
   231  2.3000000000000D+00  0.0000000000000D+00  0.0000000000000D+00
   232  2.3100000000000D+00  0.0000000000000D+00  0.0000000000000D+00
   233  2.3200000000000D+00  0.0000000000000D+00  0.0000000000000D+00
   234  2.3300000000000D+00  0.0000000000000D+00  0.0000000000000D+00
   235  2.3400000000000D+00  0.0000000000000D+00  0.0000000000000D+00
   236  2.3500000000000D+00  0.0000000000000D+00  0.0000000000000D+00
   237  2.3600000000000D+00  0.0000000000000D+00  0.0000000000000D+00
   238  2.3700000000000D+00  0.0000000000000D+00  0.0000000000000D+00
   239  2.3800000000000D+00  0.0000000000000D+00  0.0000000000000D+00
   240  2.3900000000000D+00  0.0000000000000D+00  0.0000000000000D+00
   241  2.4000000000000D+00  0.0000000000000D+00  0.0000000000000D+00
   242  2.4100000000000D+00  0.0000000000000D+00  0.0000000000000D+00
   243  2.4200000000000D+00  0.0000000000000D+00  0.0000000000000D+00
   244  2.4300000000000D+00  0.0000000000000D+00  0.0000000000000D+00
   245  2.4400000000000D+00  0.0000000000000D+00  0.0000000000000D+00
   246  2.4500000000000D+00  0.0000000000000D+00  0.0000000000000D+00
   247  2.4600000000000D+00  0.0000000000000D+00  0.0000000000000D+00
   248  2.4700000000000D+00  0.0000000000000D+00  0.0000000000000D+00
   249  2.4800000000000D+00  0.0000000000000D+00  0.0000000000000D+00
   250  2.4900000000000D+00  0.0000000000000D+00  0.0000000000000D+00
   251  2.5000000000000D+00  0.0000000000000D+00  0.0000000000000D+00
   252  2.5100000000000D+00  0.0000000000000D+00  0.0000000000000D+00
   253  2.5200000000000D+00  0.0000000000000D+00  0.0000000000000D+00
   254  2.5300000000000D+00  0.0000000000000D+00  0.0000000000000D+00
   255  2.5400000000000D+00  0.0000000000000D+00  0.0000000000000D+00
   256  2.5500000000000D+00  0.0000000000000D+00  0.0000000000000D+00
   257  2.5600000000000D+00  0.0000000000000D+00  0.0000000000000D+00
   258  2.5700000000000D+00  0.0000000000000D+00  0.0000000000000D+00
   259  2.5800000000000D+00  0.0000000000000D+00  0.0000000000000D+00
   260  2.5900000000000D+00  0.0000000000000D+00  0.0000000000000D+00
   261  2.6000000000000D+00  0.0000000000000D+00  0.0000000000000D+00
   262  2.6100000000000D+00  0.0000000000000D+00  0.0000000000000D+00
   263  2.6200000000000D+00  0.0000000000000D+00  0.0000000000000D+00
   264  2.6300000000000D+00  0.0000000000000D+00  0.0000000000000D+00
   265  2.6400000000000D+00  0.0000000000000D+00  0.0000000000000D+00
   266  2.6500000000000D+00  0.0000000000000D+00  0.0000000000000D+00
   267  2.6600000000000D+00  0.0000000000000D+00  0.0000000000000D+00
   268  2.6700000000000D+00  0.0000000000000D+00  0.0000000000000D+00
   269  2.6800000000000D+00  0.0000000000000D+00  0.0000000000000D+00
   270  2.6900000000000D+00  0.0000000000000D+00  0.0000000000000D+00
   271  2.7000000000000D+00  0.0000000000000D+00  0.0000000000000D+00
   272  2.7100000000000D+00  0.0000000000000D+00  0.0000000000000D+00
   273  2.7200000000000D+00  0.0000000000000D+00  0.0000000000000D+00
   274  2.7300000000000D+00  0.0000000000000D+00  0.0000000000000D+00
   275  2.7400000000000D+00  0.0000000000000D+00  0.0000000000000D+00
   276  2.7500000000000D+00  0.0000000000000D+00  0.0000000000000D+00
   277  2.7600000000000D+00  0.0000000000000D+00  0.0000000000000D+00
   278  2.7700000000000D+00  0.0000000000000D+00  0.0000000000000D+00
   279  2.7800000000000D+00  0.0000000000000D+00  0.0000000000000D+00
   280  2.7900000000000D+00  0.0000000000000D+00  0.0000000000000D+00
   281  2.8000000000000D+00  0.0000000000000D+00  0.0000000000000D+00
   282  2.8100000000000D+00  0.0000000000000D+00  0.0000000000000D+00
   283  2.8200000000000D+00  0.0000000000000D+00  0.0000000000000D+00
   284  2.8300000000000D+00  0.0000000000000D+00  0.0000000000000D+00
   285  2.8400000000000D+00  0.0000000000000D+00  0.0000000000000D+00
   286  2.8500000000000D+00  0.0000000000000D+00  0.0000000000000D+00
   287  2.8600000000000D+00  0.0000000000000D+00  0.0000000000000D+00
   288  2.8700000000000D+00  0.0000000000000D+00  0.0000000000000D+00
   289  2.8800000000000D+00  0.0000000000000D+00  0.0000000000000D+00
   290  2.8900000000000D+00  0.0000000000000D+00  0.0000000000000D+00
   291  2.9000000000000D+00  0.0000000000000D+00  0.0000000000000D+00
   292  2.9100000000000D+00  0.0000000000000D+00  0.0000000000000D+00
   293  2.9200000000000D+00  0.0000000000000D+00  0.0000000000000D+00
   294  2.9300000000000D+00  0.0000000000000D+00  0.0000000000000D+00
   295  2.9400000000000D+00  0.0000000000000D+00  0.0000000000000D+00
   296  2.9500000000000D+00  0.0000000000000D+00  0.0000000000000D+00
   297  2.9600000000000D+00  0.0000000000000D+00  0.0000000000000D+00
   298  2.9700000000000D+00  0.0000000000000D+00  0.0000000000000D+00
   299  2.9800000000000D+00  0.0000000000000D+00  0.0000000000000D+00
   300  2.9900000000000D+00  0.0000000000000D+00  0.0000000000000D+00
   301  3.0000000000000D+00  0.0000000000000D+00  0.0000000000000D+00
   302  3.0100000000000D+00  0.0000000000000D+00  0.0000000000000D+00
   303  3.0200000000000D+00  0.0000000000000D+00  0.0000000000000D+00
   304  3.0300000000000D+00  0.0000000000000D+00  0.0000000000000D+00
   305  3.0400000000000D+00  0.0000000000000D+00  0.0000000000000D+00
   306  3.0500000000000D+00  0.0000000000000D+00  0.0000000000000D+00
   307  3.0600000000000D+00  0.0000000000000D+00  0.0000000000000D+00
   308  3.0700000000000D+00  0.0000000000000D+00  0.0000000000000D+00
   309  3.0800000000000D+00  0.0000000000000D+00  0.0000000000000D+00
   310  3.0900000000000D+00  0.0000000000000D+00  0.0000000000000D+00
   311  3.1000000000000D+00  0.0000000000000D+00  0.0000000000000D+00
   312  3.1100000000000D+00  0.0000000000000D+00  0.0000000000000D+00
   313  3.1200000000000D+00  0.0000000000000D+00  0.0000000000000D+00
   314  3.1300000000000D+00  0.0000000000000D+00  0.0000000000000D+00
   315  3.1400000000000D+00  0.0000000000000D+00  0.0000000000000D+00
   316  3.1500000000000D+00  0.0000000000000D+00  0.0000000000000D+00
   317  3.1600000000000D+00  0.0000000000000D+00  0.0000000000000D+00
   318  3.1700000000000D+00  0.0000000000000D+00  0.0000000000000D+00
   319  3.1800000000000D+00  0.0000000000000D+00  0.0000000000000D+00
   320  3.1900000000000D+00  0.0000000000000D+00  0.0000000000000D+00
   321  3.2000000000000D+00  0.0000000000000D+00  0.0000000000000D+00
   322  3.2100000000000D+00  0.0000000000000D+00  0.0000000000000D+00
   323  3.2200000000000D+00  0.0000000000000D+00  0.0000000000000D+00
   324  3.2300000000000D+00  0.0000000000000D+00  0.0000000000000D+00
   325  3.2400000000000D+00  0.0000000000000D+00  0.0000000000000D+00
   326  3.2500000000000D+00  0.0000000000000D+00  0.0000000000000D+00
   327  3.2600000000000D+00  0.0000000000000D+00  0.0000000000000D+00
   328  3.2700000000000D+00  0.0000000000000D+00  0.0000000000000D+00
   329  3.2800000000000D+00  0.0000000000000D+00  0.0000000000000D+00
   330  3.2900000000000D+00  0.0000000000000D+00  0.0000000000000D+00
   331  3.3000000000000D+00  0.0000000000000D+00  0.0000000000000D+00
   332  3.3100000000000D+00  0.0000000000000D+00  0.0000000000000D+00
   333  3.3200000000000D+00  0.0000000000000D+00  0.0000000000000D+00
   334  3.3300000000000D+00  0.0000000000000D+00  0.0000000000000D+00
   335  3.3400000000000D+00  0.0000000000000D+00  0.0000000000000D+00
   336  3.3500000000000D+00  0.0000000000000D+00  0.0000000000000D+00
   337  3.3600000000000D+00  0.0000000000000D+00  0.0000000000000D+00
   338  3.3700000000000D+00  0.0000000000000D+00  0.0000000000000D+00
   339  3.3800000000000D+00  0.0000000000000D+00  0.0000000000000D+00
   340  3.3900000000000D+00  0.0000000000000D+00  0.0000000000000D+00
   341  3.4000000000000D+00  0.0000000000000D+00  0.0000000000000D+00
   342  3.4100000000000D+00  0.0000000000000D+00  0.0000000000000D+00
   343  3.4200000000000D+00  0.0000000000000D+00  0.0000000000000D+00
   344  3.4300000000000D+00  0.0000000000000D+00  0.0000000000000D+00
   345  3.4400000000000D+00  0.0000000000000D+00  0.0000000000000D+00
   346  3.4500000000000D+00  0.0000000000000D+00  0.0000000000000D+00
   347  3.4600000000000D+00  0.0000000000000D+00  0.0000000000000D+00
   348  3.4700000000000D+00  0.0000000000000D+00  0.0000000000000D+00
   349  3.4800000000000D+00  0.0000000000000D+00  0.0000000000000D+00
   350  3.4900000000000D+00  0.0000000000000D+00  0.0000000000000D+00
   351  3.5000000000000D+00  0.0000000000000D+00  0.0000000000000D+00
   352  3.5100000000000D+00  0.0000000000000D+00  0.0000000000000D+00
   353  3.5200000000000D+00  0.0000000000000D+00  0.0000000000000D+00
   354  3.5300000000000D+00  0.0000000000000D+00  0.0000000000000D+00
   355  3.5400000000000D+00  0.0000000000000D+00  0.0000000000000D+00
   356  3.5500000000000D+00  0.0000000000000D+00  0.0000000000000D+00
   357  3.5600000000000D+00  0.0000000000000D+00  0.0000000000000D+00
   358  3.5700000000000D+00  0.0000000000000D+00  0.0000000000000D+00
   359  3.5800000000000D+00  0.0000000000000D+00  0.0000000000000D+00
   360  3.5900000000000D+00  0.0000000000000D+00  0.0000000000000D+00
   361  3.6000000000000D+00  0.0000000000000D+00  0.0000000000000D+00
   362  3.6100000000000D+00  0.0000000000000D+00  0.0000000000000D+00
   363  3.6200000000000D+00  0.0000000000000D+00  0.0000000000000D+00
   364  3.6300000000000D+00  0.0000000000000D+00  0.0000000000000D+00
   365  3.6400000000000D+00  0.0000000000000D+00  0.0000000000000D+00
   366  3.6500000000000D+00  0.0000000000000D+00  0.0000000000000D+00
   367  3.6600000000000D+00  0.0000000000000D+00  0.0000000000000D+00
   368  3.6700000000000D+00  0.0000000000000D+00  0.0000000000000D+00
   369  3.6800000000000D+00  0.0000000000000D+00  0.0000000000000D+00
   370  3.6900000000000D+00  0.0000000000000D+00  0.0000000000000D+00
   371  3.7000000000000D+00  0.0000000000000D+00  0.0000000000000D+00
   372  3.7100000000000D+00  0.0000000000000D+00  0.0000000000000D+00
   373  3.7200000000000D+00  0.0000000000000D+00  0.0000000000000D+00
   374  3.7300000000000D+00  0.0000000000000D+00  0.0000000000000D+00
   375  3.7400000000000D+00  0.0000000000000D+00  0.0000000000000D+00
   376  3.7500000000000D+00  0.0000000000000D+00  0.0000000000000D+00
   377  3.7600000000000D+00  0.0000000000000D+00  0.0000000000000D+00
   378  3.7700000000000D+00  0.0000000000000D+00  0.0000000000000D+00
   379  3.7800000000000D+00  0.0000000000000D+00  0.0000000000000D+00
   380  3.7900000000000D+00  0.0000000000000D+00  0.0000000000000D+00
   381  3.8000000000000D+00  0.0000000000000D+00  0.0000000000000D+00
   382  3.8100000000000D+00  0.0000000000000D+00  0.0000000000000D+00
   383  3.8200000000000D+00  0.0000000000000D+00  0.0000000000000D+00
   384  3.8300000000000D+00  0.0000000000000D+00  0.0000000000000D+00
   385  3.8400000000000D+00  0.0000000000000D+00  0.0000000000000D+00
   386  3.8500000000000D+00  0.0000000000000D+00  0.0000000000000D+00
   387  3.8600000000000D+00  0.0000000000000D+00  0.0000000000000D+00
   388  3.8700000000000D+00  0.0000000000000D+00  0.0000000000000D+00
   389  3.8800000000000D+00  0.0000000000000D+00  0.0000000000000D+00
   390  3.8900000000000D+00  0.0000000000000D+00  0.0000000000000D+00
   391  3.9000000000000D+00  0.0000000000000D+00  0.0000000000000D+00
   392  3.9100000000000D+00  0.0000000000000D+00  0.0000000000000D+00
   393  3.9200000000000D+00  0.0000000000000D+00  0.0000000000000D+00
   394  3.9300000000000D+00  0.0000000000000D+00  0.0000000000000D+00
   395  3.9400000000000D+00  0.0000000000000D+00  0.0000000000000D+00
   396  3.9500000000000D+00  0.0000000000000D+00  0.0000000000000D+00
   397  3.9600000000000D+00  0.0000000000000D+00  0.0000000000000D+00
   398  3.9700000000000D+00  0.0000000000000D+00  0.0000000000000D+00
   399  3.9800000000000D+00  0.0000000000000D+00  0.0000000000000D+00
   400  3.9900000000000D+00  0.0000000000000D+00  0.0000000000000D+00
   401  4.0000000000000D+00  0.0000000000000D+00  0.0000000000000D+00
   402  4.0100000000000D+00  0.0000000000000D+00  0.0000000000000D+00
   403  4.0200000000000D+00  0.0000000000000D+00  0.0000000000000D+00
   404  4.0300000000000D+00  0.0000000000000D+00  0.0000000000000D+00
   405  4.0400000000000D+00  0.0000000000000D+00  0.0000000000000D+00
   406  4.0500000000000D+00  0.0000000000000D+00  0.0000000000000D+00
   407  4.0600000000000D+00  0.0000000000000D+00  0.0000000000000D+00
   408  4.0700000000000D+00  0.0000000000000D+00  0.0000000000000D+00
   409  4.0800000000000D+00  0.0000000000000D+00  0.0000000000000D+00
   410  4.0900000000000D+00  0.0000000000000D+00  0.0000000000000D+00
   411  4.1000000000000D+00  0.0000000000000D+00  0.0000000000000D+00
   412  4.1100000000000D+00  0.0000000000000D+00  0.0000000000000D+00
   413  4.1200000000000D+00  0.0000000000000D+00  0.0000000000000D+00
   414  4.1300000000000D+00  0.0000000000000D+00  0.0000000000000D+00
   415  4.1400000000000D+00  0.0000000000000D+00  0.0000000000000D+00
   416  4.1500000000000D+00  0.0000000000000D+00  0.0000000000000D+00
   417  4.1600000000000D+00  0.0000000000000D+00  0.0000000000000D+00
   418  4.1700000000000D+00  0.0000000000000D+00  0.0000000000000D+00
   419  4.1800000000000D+00  0.0000000000000D+00  0.0000000000000D+00
   420  4.1900000000000D+00  0.0000000000000D+00  0.0000000000000D+00
   421  4.2000000000000D+00  0.0000000000000D+00  0.0000000000000D+00
   422  4.2100000000000D+00  0.0000000000000D+00  0.0000000000000D+00