I     ONCVPSP-3.3.0  r_core=   1.97279   1.85857   1.85857
     53.0000     17.0000      220408    zatom,zion,pspd
     8       2   2     4   600     0    pspcod,pspxc,lmax,lloc,mmax,r2well
  5.99000000  0.00000000  0.00000000    rchrg fchrg qchrg
     2     2     2     0     0    nproj
     1     1           extension_switch
   0                         7.4356499444410D+00  1.3338085768410D+00
     1  0.0000000000000D+00  8.5347701128669D-12 -4.6666059905220D-11
     2  1.0000000000000D-02  1.0811263007427D-02  2.5878461144989D-02
     3  2.0000000000000D-02  2.1663789991004D-02  5.1615320831903D-02
     4  3.0000000000000D-02  3.2598656976422D-02  7.7069651699417D-02
     5  4.0000000000000D-02  4.3656564758300D-02  1.0210187165211D-01
     6  5.0000000000000D-02  5.4877652957093D-02  1.2657440918621D-01
     7  6.0000000000000D-02  6.6301316076931D-02  1.5035235997955D-01
     8  7.0000000000000D-02  7.7966022221349D-02  1.7330413188872D-01
     9  8.0000000000000D-02  8.9909135115345D-02  1.9530207554271D-01
    10  9.0000000000000D-02  1.0216674007152D-01  2.1622309778090D-01
    11  1.0000000000000D-01  1.1477347452541D-01  2.3594925525194D-01
    12  1.1000000000000D-01  1.2776236375033D-01  2.5436832557083D-01
    13  1.2000000000000D-01  1.4116466234520D-01  2.7137435352170D-01
    14  1.3000000000000D-01  1.5500970207044D-01  2.8686816989556D-01
    15  1.4000000000000D-01  1.6932474658590D-01  3.0075788066305D-01
    16  1.5000000000000D-01  1.8413485362281D-01  3.1295932430310D-01
    17  1.6000000000000D-01  1.9946274509710D-01  3.2339649523862D-01
    18  1.7000000000000D-01  2.1532868564572D-01  3.3200193146843D-01
    19  1.8000000000000D-01  2.3175037003949D-01  3.3871706463223D-01
    20  1.9000000000000D-01  2.4874281989741D-01  3.4349253089941D-01
    21  2.0000000000000D-01  2.6631829009575D-01  3.4628844123456D-01
    22  2.1000000000000D-01  2.8448618523383D-01  3.4707460976078D-01
    23  2.2000000000000D-01  3.0325298648422D-01  3.4583073911588D-01
    24  2.3000000000000D-01  3.2262218912080D-01  3.4254656187631D-01
    25  2.4000000000000D-01  3.4259425098177D-01  3.3722193730754D-01
    26  2.5000000000000D-01  3.6316655208804D-01  3.2986690288779D-01
    27  2.6000000000000D-01  3.8433336559953D-01  3.2050168024290D-01
    28  2.7000000000000D-01  4.0608584025282D-01  3.0915663532422D-01
    29  2.8000000000000D-01  4.2841199438477D-01  2.9587219285619D-01
    30  2.9000000000000D-01  4.5129672160635D-01  2.8069870527703D-01
    31  3.0000000000000D-01  4.7472180815055D-01  2.6369627659194D-01
    32  3.1000000000000D-01  4.9866596187758D-01  2.4493454175435D-01
    33  3.2000000000000D-01  5.2310485287977D-01  2.2449240238444D-01
    34  3.3000000000000D-01  5.4801116558719D-01  2.0245771982690D-01
    35  3.4000000000000D-01  5.7335466223463D-01  1.7892696673794D-01
    36  3.5000000000000D-01  5.9910225750947D-01  1.5400483857744D-01
    37  3.6000000000000D-01  6.2521810416003D-01  1.2780382656167D-01
    38  3.7000000000000D-01  6.5166368930394D-01  1.0044375380737D-01
    39  3.8000000000000D-01  6.7839794113709D-01  7.2051276566220D-02
    40  3.9000000000000D-01  7.0537734570539D-01  4.2759352610407D-02
    41  4.0000000000000D-01  7.3255607336408D-01  1.2706678983466D-02
    42  4.1000000000000D-01  7.5988611451314D-01 -1.7962898524018D-02
    43  4.2000000000000D-01  7.8731742416217D-01 -4.9101001678550D-02
    44  4.3000000000000D-01  8.1479807484455D-01 -8.0555359266270D-02
    45  4.4000000000000D-01  8.4227441736825D-01 -1.1217046697716D-01
    46  4.5000000000000D-01  8.6969124886029D-01 -1.4378826486970D-01
    47  4.6000000000000D-01  8.9699198753291D-01 -1.7524882948243D-01
    48  4.7000000000000D-01  9.2411885357266D-01 -2.0639107757840D-01
    49  4.8000000000000D-01  9.5101305552866D-01 -2.3705347844113D-01
    50  4.9000000000000D-01  9.7761498155326D-01 -2.6707477158605D-01
    51  5.0000000000000D-01  1.0038643948285D+00 -2.9629468671112D-01
    52  5.1000000000000D-01  1.0297006324921D+00 -3.2455466268251D-01
    53  5.2000000000000D-01  1.0550628073631D+00 -3.5169856233942D-01
    54  5.3000000000000D-01  1.0798900117510D+00 -3.7757337990286D-01
    55  5.4000000000000D-01  1.1041215226247D+00 -4.0202993778967D-01
    56  5.5000000000000D-01  1.1276970074067D+00 -4.2492356966355D-01
    57  5.6000000000000D-01  1.1505567296547D+00 -4.4611478659991D-01
    58  5.7000000000000D-01  1.1726417538883D+00 -4.6546992330148D-01
    59  5.8000000000000D-01  1.1938941488215D+00 -4.8286176137514D-01
    60  5.9000000000000D-01  1.2142571882593D+00 -4.9817012676933D-01
    61  6.0000000000000D-01  1.2336755489305D+00 -5.1128245857320D-01
    62  6.1000000000000D-01  1.2520955045288D+00 -5.2209434649508D-01
    63  6.2000000000000D-01  1.2694651152524D+00 -5.3051003446637D-01
    64  6.3000000000000D-01  1.2857344121433D+00 -5.3644288795946D-01
    65  6.4000000000000D-01  1.3008555755444D+00 -5.3981582276171D-01
    66  6.5000000000000D-01  1.3147831070150D+00 -5.4056169311394D-01
    67  6.6000000000000D-01  1.3274739940630D+00 -5.3862363729753D-01
    68  6.7000000000000D-01  1.3388878670829D+00 -5.3395537894246D-01
    69  6.8000000000000D-01  1.3489871479106D+00 -5.2652148252324D-01
    70  6.9000000000000D-01  1.3577371894395D+00 -5.1629756171563D-01
    71  7.0000000000000D-01  1.3651064057737D+00 -5.0327043949914D-01
    72  7.1000000000000D-01  1.3710663924273D+00 -4.8743825910981D-01
    73  7.2000000000000D-01  1.3755920361177D+00 -4.6881054517150D-01
    74  7.3000000000000D-01  1.3786616137363D+00 -4.4740821456520D-01
    75  7.4000000000000D-01  1.3802568801221D+00 -4.2326353682757D-01
    76  7.5000000000000D-01  1.3803631443051D+00 -3.9642004410641D-01
    77  7.6000000000000D-01  1.3789693339292D+00 -3.6693239093730D-01
    78  7.7000000000000D-01  1.3760680476083D+00 -3.3486616434297D-01
    79  7.8000000000000D-01  1.3716555950173D+00 -3.0029764499339D-01
    80  7.9000000000000D-01  1.3657320245617D+00 -2.6331352039788D-01
    81  8.0000000000000D-01  1.3583011385215D+00 -2.2401055133231D-01
    82  8.1000000000000D-01  1.3493704956102D+00 -1.8249519292984D-01
    83  8.2000000000000D-01  1.3389514009370D+00 -1.3888317208436D-01
    84  8.3000000000000D-01  1.3270588834099D+00 -9.3299023029589D-02
    85  8.4000000000000D-01  1.3137116606665D+00 -4.5875583162272D-02
    86  8.5000000000000D-01  1.2989320916622D+00  3.2465486253093D-03
    87  8.6000000000000D-01  1.2827461170987D+00  5.3919588651955D-02
    88  8.7000000000000D-01  1.2651831879177D+00  1.0598917756649D-01
    89  8.8000000000000D-01  1.2462761821318D+00  1.5929501908898D-01
    90  8.9000000000000D-01  1.2260613103095D+00  2.1367154543403D-01
    91  9.0000000000000D-01  1.2045780100719D+00  2.6894860634029D-01
    92  9.1000000000000D-01  1.1818688300041D+00  3.2495217850814D-01
    93  9.2000000000000D-01  1.1579793034195D+00  3.8150509214243D-01
    94  9.3000000000000D-01  1.1329578124573D+00  4.3842777120675D-01
    95  9.4000000000000D-01  1.1068554430254D+00  4.9553898392261D-01
    96  9.5000000000000D-01  1.0797258311393D+00  5.5265659999161D-01
    97  9.6000000000000D-01  1.0516250012332D+00  6.0959835097925D-01
    98  9.7000000000000D-01  1.0226111970539D+00  6.6618259027959D-01
    99  9.8000000000000D-01  9.9274470577014D-01  7.2222904907675D-01
   100  9.9000000000000D-01  9.6208767595577D-01  7.7755958473567D-01
   101  1.0000000000000D+00  9.3070393012532D-01  8.3199891808841D-01
   102  1.0100000000000D+00  8.9865877251738D-01  8.8537535613395D-01
   103  1.0200000000000D+00  8.6601879283745D-01  9.3752149674245D-01
   104  1.0300000000000D+00  8.3285166668225D-01  9.8827491203772D-01
   105  1.0400000000000D+00  7.9922595337712D-01  1.0374788072414D+00
   106  1.0500000000000D+00  7.6521089196314D-01  1.0849826518835D+00
   107  1.0600000000000D+00  7.3087619607328D-01  1.1306427804202D+00
   108  1.0700000000000D+00  6.9629184843582D-01  1.1743229594583D+00
   109  1.0800000000000D+00  6.6152789573980D-01  1.2158949189528D+00
   110  1.0900000000000D+00  6.2665424459064D-01  1.2552388449171D+00
   111  1.1000000000000D+00  5.9174045927363D-01  1.2922438314014D+00
   112  1.1100000000000D+00  5.5685556203075D-01  1.3268082896833D+00
   113  1.1200000000000D+00  5.2206783653896D-01  1.3588403128594D+00
   114  1.1300000000000D+00  4.8744463526349D-01  1.3882579942089D+00
   115  1.1400000000000D+00  4.5305219133432D-01  1.4149896979905D+00
   116  1.1500000000000D+00  4.1895543557326D-01  1.4389742815448D+00
   117  1.1600000000000D+00  3.8521781926840D-01  1.4601612678624D+00
   118  1.1700000000000D+00  3.5190114327455D-01  1.4785109679540D+00
   119  1.1800000000000D+00  3.1906539397608D-01  1.4939945527154D+00
   120  1.1900000000000D+00  2.8676858662225D-01  1.5065940741876D+00
   121  1.2000000000000D+00  2.5506661650863D-01  1.5163024363897D+00
   122  1.2100000000000D+00  2.2401311845067D-01  1.5231233161105D+00
   123  1.2200000000000D+00  1.9365933494529D-01  1.5270710343965D+00
   124  1.2300000000000D+00  1.6405399337933D-01  1.5281703796983D+00
   125  1.2400000000000D+00  1.3524319262617D-01  1.5264563837676D+00
   126  1.2500000000000D+00  1.0727029930131D-01  1.5219740518255D+00
   127  1.2600000000000D+00  8.0175853916861D-02  1.5147780486756D+00
   128  1.2700000000000D+00  5.3997487154232D-02  1.5049323425639D+00
   129  1.2800000000000D+00  2.8769846405789D-02  1.4925098089543D+00
   130  1.2900000000000D+00  4.5245326950013D-03  1.4775917965558D+00
   131  1.3000000000000D+00 -1.8709951922310D-02  1.4602676579919D+00
   132  1.3100000000000D+00 -4.0908246451811D-02  1.4406342478526D+00
   133  1.3200000000000D+00 -6.2048162565653D-02  1.4187953909855D+00
   134  1.3300000000000D+00 -8.2110705723801D-02  1.3948613238760D+00
   135  1.3400000000000D+00 -1.0108008592283D-01  1.3689481123286D+00
   136  1.3500000000000D+00 -1.1894371818914D-01  1.3411770486140D+00
   137  1.3600000000000D+00 -1.3569221293620D-01  1.3116740313253D+00
   138  1.3700000000000D+00 -1.5131935641846D-01  1.2805689313938D+00
   139  1.3800000000000D+00 -1.6582208147254D-01  1.2479949476035D+00
   140  1.3900000000000D+00 -1.7920042879544D-01  1.2140879551063D+00
   141  1.4000000000000D+00 -1.9145749907434D-01  1.1789858503515D+00
   142  1.4100000000000D+00 -2.0259939622406D-01  1.1428278959284D+00
   143  1.4200000000000D+00 -2.1263516211291D-01  1.1057540687250D+00
   144  1.4300000000000D+00 -2.2157670311045D-01  1.0679044147409D+00
   145  1.4400000000000D+00 -2.2943870882706D-01  1.0294184140178D+00
   146  1.4500000000000D+00 -2.3623856347428D-01  9.9043435863812D-01
   147  1.4600000000000D+00 -2.4199625021264D-01  9.5108874729010D-01
   148  1.4700000000000D+00 -2.4673424895782D-01  9.1151569904608D-01
   149  1.4800000000000D+00 -2.5047742805246D-01  8.7184638943688D-01
   150  1.4900000000000D+00 -2.5325293026715D-01  8.3220851156589D-01
   151  1.5000000000000D+00 -2.5509005358138D-01  7.9272576447177D-01
   152  1.5100000000000D+00 -2.5602012720358D-01  7.5351737176592D-01
   153  1.5200000000000D+00 -2.5607638329287D-01  7.1469763175202D-01
   154  1.5300000000000D+00 -2.5529382484971D-01  6.7637550211998D-01
   155  1.5400000000000D+00 -2.5370909022853D-01  6.3865421983037D-01
   156  1.5500000000000D+00 -2.5136031473954D-01  6.0163095862197D-01
   157  1.5600000000000D+00 -2.4828698978611D-01  5.6539652481102D-01
   158  1.5700000000000D+00 -2.4452981997912D-01  5.3003509265135D-01
   159  1.5800000000000D+00 -2.4013057868183D-01  4.9562398020110D-01
   160  1.5900000000000D+00 -2.3513196237287D-01  4.6223346565861D-01
   161  1.6000000000000D+00 -2.2957744430090D-01  4.2992664543606D-01
   162  1.6100000000000D+00 -2.2351112774254D-01  3.9875933261001D-01
   163  1.6200000000000D+00 -2.1697759936486D-01  3.6877999730183D-01
   164  1.6300000000000D+00 -2.1002178291353D-01  3.4002974638832D-01
   165  1.6400000000000D+00 -2.0268879375766D-01  3.1254234427389D-01
   166  1.6500000000000D+00 -1.9502379441614D-01  2.8634427105949D-01
   167  1.6600000000000D+00 -1.8707185161826D-01  2.6145481981589D-01
   168  1.6700000000000D+00 -1.7887779494164D-01  2.3788622860148D-01
   169  1.6800000000000D+00 -1.7048607757238D-01  2.1564384851067D-01
   170  1.6900000000000D+00 -1.6194063917441D-01  1.9472634312542D-01
   171  1.7000000000000D+00 -1.5328477138971D-01  1.7512592005843D-01
   172  1.7100000000000D+00 -1.4456098590223D-01  1.5682858981625D-01
   173  1.7200000000000D+00 -1.3581088556864D-01  1.3981445210975D-01
   174  1.7300000000000D+00 -1.2707503849044D-01  1.2405800478414D-01
   175  1.7400000000000D+00 -1.1839285551629D-01  1.0952847492633D-01
   176  1.7500000000000D+00 -1.0980247099679D-01  9.6190167471570D-02
   177  1.7600000000000D+00 -1.0134062629044D-01  8.4002826477554D-02
   178  1.7700000000000D+00 -9.3042562213364D-02  7.2922029249473D-02
   179  1.7800000000000D+00 -8.4941896680741D-02  6.2899520564740D-02
   180  1.7900000000000D+00 -7.7070554904485D-02  5.3883732085123D-02
   181  1.8000000000000D+00 -6.9458644640702D-02  4.5820097035223D-02
   182  1.8100000000000D+00 -6.2134291970967D-02  3.8651182003545D-02
   183  1.8200000000000D+00 -5.5123663118478D-02  3.2317518107279D-02
   184  1.8300000000000D+00 -4.8451026206954D-02  2.6758579966134D-02
   185  1.8400000000000D+00 -4.2138806036209D-02  2.1913651907241D-02
   186  1.8500000000000D+00 -3.6207697797277D-02  1.7722841219575D-02
   187  1.8600000000000D+00 -3.0676745781111D-02  1.4127936060100D-02
   188  1.8700000000000D+00 -2.5563255965706D-02  1.1072580093183D-02
   189  1.8800000000000D+00 -2.0882751574859D-02  8.5025617760821D-03
   190  1.8900000000000D+00 -1.6648989057947D-02  6.3663332686747D-03
   191  1.9000000000000D+00 -1.2873926542759D-02  4.6152943288016D-03
   192  1.9100000000000D+00 -9.5696617243652D-03  3.2043330254463D-03
   193  1.9200000000000D+00 -6.7408434898496D-03  2.0912806660939D-03
   194  1.9300000000000D+00 -4.3866828900384D-03  1.2378846306922D-03
   195  1.9400000000000D+00 -2.5205003337615D-03  6.1072529630151D-04
   196  1.9500000000000D+00 -1.1730085370292D-03  1.8066272505659D-04
   197  1.9600000000000D+00 -3.4419032066202D-04 -8.1401331241019D-05
   198  1.9700000000000D+00  5.5508874097210D-05 -1.8848725995616D-04
   199  1.9800000000000D+00  1.4127662572338D-04 -1.5730220760431D-04
   200  1.9900000000000D+00  6.6041655260929D-05 -5.9694145223590D-05
   201  2.0000000000000D+00 -1.8079787978285D-05  1.5415707332543D-05
   202  2.0100000000000D+00 -2.9991058832008D-05  2.4220660627494D-05
   203  2.0200000000000D+00 -1.4688782067935D-06  1.1466430955879D-06
   204  2.0300000000000D+00  6.1903674652408D-06 -5.6433991267354D-06
   205  2.0400000000000D+00  3.3584849391421D-06 -3.0007368781314D-06
   206  2.0500000000000D+00 -2.0811297643681D-07  3.8087997797903D-07
   207  2.0600000000000D+00 -2.6909830304071D-07  4.9249286368965D-07
   208  2.0700000000000D+00  0.0000000000000D+00  0.0000000000000D+00
   209  2.0800000000000D+00  0.0000000000000D+00  0.0000000000000D+00
   210  2.0900000000000D+00  0.0000000000000D+00  0.0000000000000D+00
   211  2.1000000000000D+00  0.0000000000000D+00  0.0000000000000D+00
   212  2.1100000000000D+00  0.0000000000000D+00  0.0000000000000D+00
   213  2.1200000000000D+00  0.0000000000000D+00  0.0000000000000D+00
   214  2.1300000000000D+00  0.0000000000000D+00  0.0000000000000D+00
   215  2.1400000000000D+00  0.0000000000000D+00  0.0000000000000D+00
   216  2.1500000000000D+00  0.0000000000000D+00  0.0000000000000D+00
   217  2.1600000000000D+00  0.0000000000000D+00  0.0000000000000D+00
   218  2.1700000000000D+00  0.0000000000000D+00  0.0000000000000D+00
   219  2.1800000000000D+00  0.0000000000000D+00  0.0000000000000D+00
   220  2.1900000000000D+00  0.0000000000000D+00  0.0000000000000D+00
   221  2.2000000000000D+00  0.0000000000000D+00  0.0000000000000D+00
   222  2.2100000000000D+00  0.0000000000000D+00  0.0000000000000D+00
   223  2.2200000000000D+00  0.0000000000000D+00  0.0000000000000D+00
   224  2.2300000000000D+00  0.0000000000000D+00  0.0000000000000D+00
   225  2.2400000000000D+00  0.0000000000000D+00  0.0000000000000D+00
   226  2.2500000000000D+00  0.0000000000000D+00  0.0000000000000D+00
   227  2.2600000000000D+00  0.0000000000000D+00  0.0000000000000D+00
   228  2.2700000000000D+00  0.0000000000000D+00  0.0000000000000D+00
   229  2.2800000000000D+00  0.0000000000000D+00  0.0000000000000D+00
   230  2.2900000000000D+00  0.0000000000000D+00  0.0000000000000D+00
   231  2.3000000000000D+00  0.0000000000000D+00  0.0000000000000D+00
   232  2.3100000000000D+00  0.0000000000000D+00  0.0000000000000D+00
   233  2.3200000000000D+00  0.0000000000000D+00  0.0000000000000D+00
   234  2.3300000000000D+00  0.0000000000000D+00  0.0000000000000D+00
   235  2.3400000000000D+00  0.0000000000000D+00  0.0000000000000D+00
   236  2.3500000000000D+00  0.0000000000000D+00  0.0000000000000D+00
   237  2.3600000000000D+00  0.0000000000000D+00  0.0000000000000D+00
   238  2.3700000000000D+00  0.0000000000000D+00  0.0000000000000D+00
   239  2.3800000000000D+00  0.0000000000000D+00  0.0000000000000D+00
   240  2.3900000000000D+00  0.0000000000000D+00  0.0000000000000D+00
   241  2.4000000000000D+00  0.0000000000000D+00  0.0000000000000D+00
   242  2.4100000000000D+00  0.0000000000000D+00  0.0000000000000D+00
   243  2.4200000000000D+00  0.0000000000000D+00  0.0000000000000D+00
   244  2.4300000000000D+00  0.0000000000000D+00  0.0000000000000D+00
   245  2.4400000000000D+00  0.0000000000000D+00  0.0000000000000D+00
   246  2.4500000000000D+00  0.0000000000000D+00  0.0000000000000D+00
   247  2.4600000000000D+00  0.0000000000000D+00  0.0000000000000D+00
   248  2.4700000000000D+00  0.0000000000000D+00  0.0000000000000D+00
   249  2.4800000000000D+00  0.0000000000000D+00  0.0000000000000D+00
   250  2.4900000000000D+00  0.0000000000000D+00  0.0000000000000D+00
   251  2.5000000000000D+00  0.0000000000000D+00  0.0000000000000D+00
   252  2.5100000000000D+00  0.0000000000000D+00  0.0000000000000D+00
   253  2.5200000000000D+00  0.0000000000000D+00  0.0000000000000D+00
   254  2.5300000000000D+00  0.0000000000000D+00  0.0000000000000D+00
   255  2.5400000000000D+00  0.0000000000000D+00  0.0000000000000D+00
   256  2.5500000000000D+00  0.0000000000000D+00  0.0000000000000D+00
   257  2.5600000000000D+00  0.0000000000000D+00  0.0000000000000D+00
   258  2.5700000000000D+00  0.0000000000000D+00  0.0000000000000D+00
   259  2.5800000000000D+00  0.0000000000000D+00  0.0000000000000D+00
   260  2.5900000000000D+00  0.0000000000000D+00  0.0000000000000D+00
   261  2.6000000000000D+00  0.0000000000000D+00  0.0000000000000D+00
   262  2.6100000000000D+00  0.0000000000000D+00  0.0000000000000D+00
   263  2.6200000000000D+00  0.0000000000000D+00  0.0000000000000D+00
   264  2.6300000000000D+00  0.0000000000000D+00  0.0000000000000D+00
   265  2.6400000000000D+00  0.0000000000000D+00  0.0000000000000D+00
   266  2.6500000000000D+00  0.0000000000000D+00  0.0000000000000D+00
   267  2.6600000000000D+00  0.0000000000000D+00  0.0000000000000D+00
   268  2.6700000000000D+00  0.0000000000000D+00  0.0000000000000D+00
   269  2.6800000000000D+00  0.0000000000000D+00  0.0000000000000D+00
   270  2.6900000000000D+00  0.0000000000000D+00  0.0000000000000D+00
   271  2.7000000000000D+00  0.0000000000000D+00  0.0000000000000D+00
   272  2.7100000000000D+00  0.0000000000000D+00  0.0000000000000D+00
   273  2.7200000000000D+00  0.0000000000000D+00  0.0000000000000D+00
   274  2.7300000000000D+00  0.0000000000000D+00  0.0000000000000D+00
   275  2.7400000000000D+00  0.0000000000000D+00  0.0000000000000D+00
   276  2.7500000000000D+00  0.0000000000000D+00  0.0000000000000D+00
   277  2.7600000000000D+00  0.0000000000000D+00  0.0000000000000D+00
   278  2.7700000000000D+00  0.0000000000000D+00  0.0000000000000D+00
   279  2.7800000000000D+00  0.0000000000000D+00  0.0000000000000D+00
   280  2.7900000000000D+00  0.0000000000000D+00  0.0000000000000D+00
   281  2.8000000000000D+00  0.0000000000000D+00  0.0000000000000D+00
   282  2.8100000000000D+00  0.0000000000000D+00  0.0000000000000D+00
   283  2.8200000000000D+00  0.0000000000000D+00  0.0000000000000D+00
   284  2.8300000000000D+00  0.0000000000000D+00  0.0000000000000D+00
   285  2.8400000000000D+00  0.0000000000000D+00  0.0000000000000D+00
   286  2.8500000000000D+00  0.0000000000000D+00  0.0000000000000D+00
   287  2.8600000000000D+00  0.0000000000000D+00  0.0000000000000D+00
   288  2.8700000000000D+00  0.0000000000000D+00  0.0000000000000D+00
   289  2.8800000000000D+00  0.0000000000000D+00  0.0000000000000D+00
   290  2.8900000000000D+00  0.0000000000000D+00  0.0000000000000D+00
   291  2.9000000000000D+00  0.0000000000000D+00  0.0000000000000D+00
   292  2.9100000000000D+00  0.0000000000000D+00  0.0000000000000D+00
   293  2.9200000000000D+00  0.0000000000000D+00  0.0000000000000D+00
   294  2.9300000000000D+00  0.0000000000000D+00  0.0000000000000D+00
   295  2.9400000000000D+00  0.0000000000000D+00  0.0000000000000D+00
   296  2.9500000000000D+00  0.0000000000000D+00  0.0000000000000D+00
   297  2.9600000000000D+00  0.0000000000000D+00  0.0000000000000D+00
   298  2.9700000000000D+00  0.0000000000000D+00  0.0000000000000D+00
   299  2.9800000000000D+00  0.0000000000000D+00  0.0000000000000D+00
   300  2.9900000000000D+00  0.0000000000000D+00  0.0000000000000D+00
   301  3.0000000000000D+00  0.0000000000000D+00  0.0000000000000D+00
   302  3.0100000000000D+00  0.0000000000000D+00  0.0000000000000D+00
   303  3.0200000000000D+00  0.0000000000000D+00  0.0000000000000D+00
   304  3.0300000000000D+00  0.0000000000000D+00  0.0000000000000D+00
   305  3.0400000000000D+00  0.0000000000000D+00  0.0000000000000D+00
   306  3.0500000000000D+00  0.0000000000000D+00  0.0000000000000D+00
   307  3.0600000000000D+00  0.0000000000000D+00  0.0000000000000D+00
   308  3.0700000000000D+00  0.0000000000000D+00  0.0000000000000D+00
   309  3.0800000000000D+00  0.0000000000000D+00  0.0000000000000D+00
   310  3.0900000000000D+00  0.0000000000000D+00  0.0000000000000D+00
   311  3.1000000000000D+00  0.0000000000000D+00  0.0000000000000D+00
   312  3.1100000000000D+00  0.0000000000000D+00  0.0000000000000D+00
   313  3.1200000000000D+00  0.0000000000000D+00  0.0000000000000D+00
   314  3.1300000000000D+00  0.0000000000000D+00  0.0000000000000D+00
   315  3.1400000000000D+00  0.0000000000000D+00  0.0000000000000D+00
   316  3.1500000000000D+00  0.0000000000000D+00  0.0000000000000D+00
   317  3.1600000000000D+00  0.0000000000000D+00  0.0000000000000D+00
   318  3.1700000000000D+00  0.0000000000000D+00  0.0000000000000D+00
   319  3.1800000000000D+00  0.0000000000000D+00  0.0000000000000D+00
   320  3.1900000000000D+00  0.0000000000000D+00  0.0000000000000D+00
   321  3.2000000000000D+00  0.0000000000000D+00  0.0000000000000D+00
   322  3.2100000000000D+00  0.0000000000000D+00  0.0000000000000D+00
   323  3.2200000000000D+00  0.0000000000000D+00  0.0000000000000D+00
   324  3.2300000000000D+00  0.0000000000000D+00  0.0000000000000D+00
   325  3.2400000000000D+00  0.0000000000000D+00  0.0000000000000D+00
   326  3.2500000000000D+00  0.0000000000000D+00  0.0000000000000D+00
   327  3.2600000000000D+00  0.0000000000000D+00  0.0000000000000D+00
   328  3.2700000000000D+00  0.0000000000000D+00  0.0000000000000D+00
   329  3.2800000000000D+00  0.0000000000000D+00  0.0000000000000D+00
   330  3.2900000000000D+00  0.0000000000000D+00  0.0000000000000D+00
   331  3.3000000000000D+00  0.0000000000000D+00  0.0000000000000D+00
   332  3.3100000000000D+00  0.0000000000000D+00  0.0000000000000D+00
   333  3.3200000000000D+00  0.0000000000000D+00  0.0000000000000D+00
   334  3.3300000000000D+00  0.0000000000000D+00  0.0000000000000D+00
   335  3.3400000000000D+00  0.0000000000000D+00  0.0000000000000D+00
   336  3.3500000000000D+00  0.0000000000000D+00  0.0000000000000D+00
   337  3.3600000000000D+00  0.0000000000000D+00  0.0000000000000D+00
   338  3.3700000000000D+00  0.0000000000000D+00  0.0000000000000D+00
   339  3.3800000000000D+00  0.0000000000000D+00  0.0000000000000D+00
   340  3.3900000000000D+00  0.0000000000000D+00  0.0000000000000D+00
   341  3.4000000000000D+00  0.0000000000000D+00  0.0000000000000D+00
   342  3.4100000000000D+00  0.0000000000000D+00  0.0000000000000D+00
   343  3.4200000000000D+00  0.0000000000000D+00  0.0000000000000D+00
   344  3.4300000000000D+00  0.0000000000000D+00  0.0000000000000D+00
   345  3.4400000000000D+00  0.0000000000000D+00  0.0000000000000D+00
   346  3.4500000000000D+00  0.0000000000000D+00  0.0000000000000D+00
   347  3.4600000000000D+00  0.0000000000000D+00  0.0000000000000D+00
   348  3.4700000000000D+00  0.0000000000000D+00  0.0000000000000D+00
   349  3.4800000000000D+00  0.0000000000000D+00  0.0000000000000D+00
   350  3.4900000000000D+00  0.0000000000000D+00  0.0000000000000D+00
   351  3.5000000000000D+00  0.0000000000000D+00  0.0000000000000D+00
   352  3.5100000000000D+00  0.0000000000000D+00  0.0000000000000D+00
   353  3.5200000000000D+00  0.0000000000000D+00  0.0000000000000D+00
   354  3.5300000000000D+00  0.0000000000000D+00  0.0000000000000D+00
   355  3.5400000000000D+00  0.0000000000000D+00  0.0000000000000D+00
   356  3.5500000000000D+00  0.0000000000000D+00  0.0000000000000D+00
   357  3.5600000000000D+00  0.0000000000000D+00  0.0000000000000D+00
   358  3.5700000000000D+00  0.0000000000000D+00  0.0000000000000D+00
   359  3.5800000000000D+00  0.0000000000000D+00  0.0000000000000D+00
   360  3.5900000000000D+00  0.0000000000000D+00  0.0000000000000D+00
   361  3.6000000000000D+00  0.0000000000000D+00  0.0000000000000D+00
   362  3.6100000000000D+00  0.0000000000000D+00  0.0000000000000D+00
   363  3.6200000000000D+00  0.0000000000000D+00  0.0000000000000D+00
   364  3.6300000000000D+00  0.0000000000000D+00  0.0000000000000D+00
   365  3.6400000000000D+00  0.0000000000000D+00  0.0000000000000D+00
   366  3.6500000000000D+00  0.0000000000000D+00  0.0000000000000D+00
   367  3.6600000000000D+00  0.0000000000000D+00  0.0000000000000D+00
   368  3.6700000000000D+00  0.0000000000000D+00  0.0000000000000D+00
   369  3.6800000000000D+00  0.0000000000000D+00  0.0000000000000D+00
   370  3.6900000000000D+00  0.0000000000000D+00  0.0000000000000D+00
   371  3.7000000000000D+00  0.0000000000000D+00  0.0000000000000D+00
   372  3.7100000000000D+00  0.0000000000000D+00  0.0000000000000D+00
   373  3.7200000000000D+00  0.0000000000000D+00  0.0000000000000D+00
   374  3.7300000000000D+00  0.0000000000000D+00  0.0000000000000D+00
   375  3.7400000000000D+00  0.0000000000000D+00  0.0000000000000D+00
   376  3.7500000000000D+00  0.0000000000000D+00  0.0000000000000D+00
   377  3.7600000000000D+00  0.0000000000000D+00  0.0000000000000D+00
   378  3.7700000000000D+00  0.0000000000000D+00  0.0000000000000D+00
   379  3.7800000000000D+00  0.0000000000000D+00  0.0000000000000D+00
   380  3.7900000000000D+00  0.0000000000000D+00  0.0000000000000D+00
   381  3.8000000000000D+00  0.0000000000000D+00  0.0000000000000D+00
   382  3.8100000000000D+00  0.0000000000000D+00  0.0000000000000D+00
   383  3.8200000000000D+00  0.0000000000000D+00  0.0000000000000D+00
   384  3.8300000000000D+00  0.0000000000000D+00  0.0000000000000D+00
   385  3.8400000000000D+00  0.0000000000000D+00  0.0000000000000D+00
   386  3.8500000000000D+00  0.0000000000000D+00  0.0000000000000D+00
   387  3.8600000000000D+00  0.0000000000000D+00  0.0000000000000D+00
   388  3.8700000000000D+00  0.0000000000000D+00  0.0000000000000D+00
   389  3.8800000000000D+00  0.0000000000000D+00  0.0000000000000D+00
   390  3.8900000000000D+00  0.0000000000000D+00  0.0000000000000D+00
   391  3.9000000000000D+00  0.0000000000000D+00  0.0000000000000D+00
   392  3.9100000000000D+00  0.0000000000000D+00  0.0000000000000D+00
   393  3.9200000000000D+00  0.0000000000000D+00  0.0000000000000D+00
   394  3.9300000000000D+00  0.0000000000000D+00  0.0000000000000D+00
   395  3.9400000000000D+00  0.0000000000000D+00  0.0000000000000D+00
   396  3.9500000000000D+00  0.0000000000000D+00  0.0000000000000D+00
   397  3.9600000000000D+00  0.0000000000000D+00  0.0000000000000D+00
   398  3.9700000000000D+00  0.0000000000000D+00  0.0000000000000D+00
   399  3.9800000000000D+00  0.0000000000000D+00  0.0000000000000D+00
   400  3.9900000000000D+00  0.0000000000000D+00  0.0000000000000D+00
   401  4.0000000000000D+00  0.0000000000000D+00  0.0000000000000D+00
   402  4.0100000000000D+00  0.0000000000000D+00  0.0000000000000D+00
   403  4.0200000000000D+00  0.0000000000000D+00  0.0000000000000D+00
   404  4.0300000000000D+00  0.0000000000000D+00  0.0000000000000D+00
   405  4.0400000000000D+00  0.0000000000000D+00  0.0000000000000D+00
   406  4.0500000000000D+00  0.0000000000000D+00  0.0000000000000D+00
   407  4.0600000000000D+00  0.0000000000000D+00  0.0000000000000D+00
   408  4.0700000000000D+00  0.0000000000000D+00  0.0000000000000D+00
   409  4.0800000000000D+00  0.0000000000000D+00  0.0000000000000D+00
   410  4.0900000000000D+00  0.0000000000000D+00  0.0000000000000D+00
   411  4.1000000000000D+00  0.0000000000000D+00  0.0000000000000D+00
   412  4.1100000000000D+00  0.0000000000000D+00  0.0000000000000D+00
   413  4.1200000000000D+00  0.0000000000000D+00  0.0000000000000D+00
   414  4.1300000000000D+00  0.0000000000000D+00  0.0000000000000D+00
   415  4.1400000000000D+00  0.0000000000000D+00  0.0000000000000D+00
   416  4.1500000000000D+00  0.0000000000000D+00  0.0000000000000D+00
   417  4.1600000000000D+00  0.0000000000000D+00  0.0000000000000D+00
   418  4.1700000000000D+00  0.0000000000000D+00  0.0000000000000D+00
   419  4.1800000000000D+00  0.0000000000000D+00  0.0000000000000D+00
   420  4.1900000000000D+00  0.0000000000000D+00  0.0000000000000D+00
   421  4.2000000000000D+00  0.0000000000000D+00  0.0000000000000D+00
   422  4.2100000000000D+00  0.0000000000000D+00  0.0000000000000D+00