I     ONCVPSP-3.3.0  r_core=   1.41262   1.41262   1.41262
     53.0000     25.0000      220408    zatom,zion,pspd
     8       2   2     4   600     0    pspcod,pspxc,lmax,lloc,mmax,r2well
  5.99000000  0.00000000  0.00000000    rchrg fchrg qchrg
     2     2     2     0     0    nproj
     1     1           extension_switch
   0                         1.1955848056458D+01  1.9030064200752D+00
     1  0.0000000000000D+00 -3.2723035392479D-10  7.2976150122805D-10
     2  1.0000000000000D-02  9.5015547410376D-02 -1.6050134970420D-02
     3  2.0000000000000D-02  1.8972446951563D-01 -3.1885634517818D-02
     4  3.0000000000000D-02  2.8382141376039D-01 -4.7293373849369D-02
     5  4.0000000000000D-02  3.7700356511262D-01 -6.2063234913576D-02
     6  5.0000000000000D-02  4.6897189496943D-01 -7.5989573662236D-02
     7  6.0000000000000D-02  5.5943238647177D-01 -8.8872644508443D-02
     8  7.0000000000000D-02  6.4809722875382D-01 -1.0051996858220D-01
     9  8.0000000000000D-02  7.3468597298045D-01 -1.1074763311495D-01
    10  9.0000000000000D-02  8.1892664342635D-01 -1.1938151017705D-01
    11  1.0000000000000D-01  9.0055679731952D-01 -1.2625838403556D-01
    12  1.1000000000000D-01  9.7932452770190D-01 -1.3122697757902D-01
    13  1.2000000000000D-01  1.0549894041449D+00 -1.3414886955412D-01
    14  1.3000000000000D-01  1.1273233467887D+00 -1.3489929575869D-01
    15  1.4000000000000D-01  1.1961114298441D+00 -1.3336782881554D-01
    16  1.5000000000000D-01  1.2611526113930D+00 -1.2945893269185D-01
    17  1.6000000000000D-01  1.3222603870415D+00 -1.2309238970655D-01
    18  1.7000000000000D-01  1.3792633657066D+00 -1.1420359936133D-01
    19  1.8000000000000D-01  1.4320057665436D+00 -1.0274374991517D-01
    20  1.9000000000000D-01  1.4803478367375D+00 -8.8679865176451D-02
    21  2.0000000000000D-01  1.5241661905767D+00 -7.1994730486112D-02
    22  2.1000000000000D-01  1.5633540708956D+00 -5.2686703288715D-02
    23  2.2000000000000D-01  1.5978215345959D+00 -3.0769415014645D-02
    24  2.3000000000000D-01  1.6274955645407D+00 -6.2713722054161D-03
    25  2.4000000000000D-01  1.6523201106361D+00  2.0764534112859D-02
    26  2.5000000000000D-01  1.6722560633803D+00  5.0281600881195D-02
    27  2.6000000000000D-01  1.6872811635524D+00  8.2209956603839D-02
    28  2.7000000000000D-01  1.6973898520337D+00  1.1646726483075D-01
    29  2.8000000000000D-01  1.7025930640004D+00  1.5295947587995D-01
    30  2.9000000000000D-01  1.7029179718872D+00  1.9158161495772D-01
    31  3.0000000000000D-01  1.6984076816060D+00  2.3221859483748D-01
    32  3.1000000000000D-01  1.6891208865050D+00  2.7474604145788D-01
    33  3.2000000000000D-01  1.6751314834754D+00  3.1903112119622D-01
    34  3.3000000000000D-01  1.6565281554565D+00  3.6493335915811D-01
    35  3.4000000000000D-01  1.6334139243645D+00  4.1230543858830D-01
    36  3.5000000000000D-01  1.6059056781697D+00  4.6099397244125D-01
    37  3.6000000000000D-01  1.5741336754951D+00  5.1084023923501D-01
    38  3.7000000000000D-01  1.5382410306940D+00  5.6168087653368D-01
    39  3.8000000000000D-01  1.4983831819137D+00  6.1334852673897D-01
    40  3.9000000000000D-01  1.4547273441593D+00  6.6567243130006D-01
    41  4.0000000000000D-01  1.4074519488622D+00  7.1847897094585D-01
    42  4.1000000000000D-01  1.3567460709269D+00  7.7159215108135D-01
    43  4.2000000000000D-01  1.3028088437079D+00  8.2483403303995D-01
    44  4.3000000000000D-01  1.2458488618475D+00  8.7802511342036D-01
    45  4.4000000000000D-01  1.1860835714144D+00  9.3098465522959D-01
    46  4.5000000000000D-01  1.1237386463248D+00  9.8353097597499D-01
    47  4.6000000000000D-01  1.0590473496141D+00  1.0354816991702D+00
    48  4.7000000000000D-01  9.9224987777454D-01  1.0866539769147D+00
    49  4.8000000000000D-01  9.2359268608629D-01  1.1368646922499D+00
    50  4.9000000000000D-01  8.5332779266124D-01  1.1859306508622D+00
    51  5.0000000000000D-01  7.8171205879273D-01  1.2336687723733D+00
    52  5.1000000000000D-01  7.0900644317331D-01  1.2798962919178D+00
    53  5.2000000000000D-01  6.3547522760657D-01  1.3244309829302D+00
    54  5.3000000000000D-01  5.6138521200420D-01  1.3670914120558D+00
    55  5.4000000000000D-01  4.8700487672760D-01  1.4076972368341D+00
    56  5.5000000000000D-01  4.1260351070279D-01  1.4460695562940D+00
    57  5.6000000000000D-01  3.3845030420728D-01  1.4820313238384D+00
    58  5.7000000000000D-01  2.6481340579441D-01  1.5154078307878D+00
    59  5.8000000000000D-01  1.9195894347495D-01  1.5460272677184D+00
    60  5.9000000000000D-01  1.2015001101606D-01  1.5737213692630D+00
    61  6.0000000000000D-01  4.9645621024106D-02  1.5983261463962D+00
    62  6.1000000000000D-01 -1.9300372649114D-02  1.6196827083778D+00
    63  6.2000000000000D-01 -8.6440379723121D-02  1.6376381745508D+00
    64  6.3000000000000D-01 -1.5153420112628D-01  1.6520466740846D+00
    65  6.4000000000000D-01 -2.1435017408587D-01  1.6627704295567D+00
    66  6.5000000000000D-01 -2.7466632834472D-01  1.6696809180372D+00
    67  6.6000000000000D-01 -3.3227154623169D-01  1.6726601010822D+00
    68  6.7000000000000D-01 -3.8696671841041D-01  1.6716017128186D+00
    69  6.8000000000000D-01 -4.3856588628522D-01  1.6664125931633D+00
    70  6.9000000000000D-01 -4.8689736126851D-01  1.6570140511676D+00
    71  7.0000000000000D-01 -5.3180481043688D-01  1.6433432415961D+00
    72  7.1000000000000D-01 -5.7314829753593D-01  1.6253545361520D+00
    73  7.2000000000000D-01 -6.1080526785440D-01  1.6030208692954D+00
    74  7.3000000000000D-01 -6.4467146518920D-01  1.5763350373946D+00
    75  7.4000000000000D-01 -6.7466176898102D-01  1.5453109290468D+00
    76  7.5000000000000D-01 -7.0071093972426D-01  1.5099846638192D+00
    77  7.6000000000000D-01 -7.2277426095301D-01  1.4704156164260D+00
    78  7.7000000000000D-01 -7.4082806648601D-01  1.4266873034855D+00
    79  7.8000000000000D-01 -7.5487014217837D-01  1.3789081105103D+00
    80  7.9000000000000D-01 -7.6491999217674D-01  1.3272118376693D+00
    81  8.0000000000000D-01 -7.7101896061203D-01  1.2717580441470D+00
    82  8.1000000000000D-01 -7.7323020077280D-01  1.2127321725756D+00
    83  8.2000000000000D-01 -7.7163848508451D-01  1.1503454370442D+00
    84  8.3000000000000D-01 -7.6634985065909D-01  1.0848344605651D+00
    85  8.4000000000000D-01 -7.5749107676108D-01  1.0164606505721D+00
    86  8.5000000000000D-01 -7.4520899224527D-01  9.4550930402495D-01
    87  8.6000000000000D-01 -7.2966961283504D-01  8.7228843693633D-01
    88  8.7000000000000D-01 -7.1105711000835D-01  7.9712733660732D-01
    89  8.8000000000000D-01 -6.8957261521593D-01  7.2037483848556D-01
    90  8.9000000000000D-01 -6.6543286514581D-01  6.4239733331045D-01
    91  9.0000000000000D-01 -6.3886869574392D-01  5.6357651402021D-01
    92  9.1000000000000D-01 -6.1012339467222D-01  4.8430687571286D-01
    93  9.2000000000000D-01 -5.7945092380490D-01  4.0499298571684D-01
    94  9.3000000000000D-01 -5.4711402519942D-01  3.2604654447726D-01
    95  9.4000000000000D-01 -5.1338222570929D-01  2.4788326145317D-01
    96  9.5000000000000D-01 -4.7852975698456D-01  1.7091957345694D-01
    97  9.6000000000000D-01 -4.4283340902813D-01  9.5569235835782D-02
    98  9.7000000000000D-01 -4.0657033671325D-01  2.2239819541414D-02
    99  9.8000000000000D-01 -3.7001583967029D-01 -4.8670850649658D-02
   100  9.9000000000000D-01 -3.3344113673632D-01 -1.1677827968155D-01
   101  1.0000000000000D+00 -2.9711115668658D-01 -1.8171486910875D-01
   102  1.0100000000000D+00 -2.6128236723184D-01 -2.4313342806425D-01
   103  1.0200000000000D+00 -2.2620066423194D-01 -3.0071058875347D-01
   104  1.0300000000000D+00 -1.9209934280661D-01 -3.5415008711157D-01
   105  1.0400000000000D+00 -1.5919717142178D-01 -4.0318587006031D-01
   106  1.0500000000000D+00 -1.2769658915989D-01 -4.4758499214693D-01
   107  1.0600000000000D+00 -9.7782045252823D-02 -4.8715026619663D-01
   108  1.0700000000000D+00 -6.9618498510289D-02 -5.2172263507418D-01
   109  1.0800000000000D+00 -4.3350092620454D-02 -5.5118323454715D-01
   110  1.0900000000000D+00 -1.9099021504877D-02 -5.7545512042557D-01
   111  1.1000000000000D+00  3.0354034026133D-03 -5.9450463732740D-01
   112  1.1100000000000D+00  2.2977474182544D-02 -6.0834241024718D-01
   113  1.1200000000000D+00  4.0675588738953D-02 -6.1702394516282D-01
   114  1.1300000000000D+00  5.6102529385046D-02 -6.2064982864428D-01
   115  1.1400000000000D+00  6.9255516022909D-02 -6.1936552262064D-01
   116  1.1500000000000D+00  8.0156034523329D-02 -6.1336075475844D-01
   117  1.1600000000000D+00  8.8849444082578D-02 -6.0286851087590D-01
   118  1.1700000000000D+00  9.5404371078876D-02 -5.8816364407960D-01
   119  1.1800000000000D+00  9.9911886748746D-02 -5.6956108721141D-01
   120  1.1900000000000D+00  1.0248453249484D-01 -5.4741382078963D-01
   121  1.2000000000000D+00  1.0325493850689D-01 -5.2210995217639D-01
   122  1.2100000000000D+00  1.0237508595101D-01 -4.9407152625103D-01
   123  1.2200000000000D+00  1.0001343254513D-01 -4.6374806723935D-01
   124  1.2300000000000D+00  9.6349679920517D-02 -4.3160430063995D-01
   125  1.2400000000000D+00  9.1569333291393D-02 -3.9810780137866D-01
   126  1.2500000000000D+00  8.5860291096749D-02 -3.6372191227267D-01
   127  1.2600000000000D+00  7.9411267055101D-02 -3.2890339366252D-01
   128  1.2700000000000D+00  7.2409361845578D-02 -2.9409787083338D-01
   129  1.2800000000000D+00  6.5037920881529D-02 -2.5973600274618D-01
   130  1.2900000000000D+00  5.7474376680658D-02 -2.2622957336744D-01
   131  1.3000000000000D+00  4.9888176559047D-02 -1.9396774932944D-01
   132  1.3100000000000D+00  4.2438799653871D-02 -1.6331349878514D-01
   133  1.3200000000000D+00  3.5273887402352D-02 -1.3460021928350D-01
   134  1.3300000000000D+00  2.8527509825356D-02 -1.0812861720509D-01
   135  1.3400000000000D+00  2.2318586385140D-02 -8.4163874739452D-02
   136  1.3500000000000D+00  1.6749478637844D-02 -6.2933137372943D-02
   137  1.3600000000000D+00  1.1904773171796D-02 -4.4623357358097D-02
   138  1.3700000000000D+00  7.8527376209816D-03 -2.9388906255307D-02
   139  1.3800000000000D+00  4.6302608022958D-03 -1.7296230126603D-02
   140  1.3900000000000D+00  2.2597469963038D-03 -8.3899127237999D-03
   141  1.4000000000000D+00  8.2447175330868D-04 -2.9662501497658D-03
   142  1.4100000000000D+00  1.9877383883520D-04 -5.9256178893517D-04
   143  1.4200000000000D+00  1.5100929898759D-05  3.3008987330014D-05
   144  1.4300000000000D+00  2.8944024287305D-07 -3.0730014554485D-06
   145  1.4400000000000D+00  4.7612069294063D-06 -3.2220788142172D-05
   146  1.4500000000000D+00 -1.3802973510786D-07  2.8828536529331D-06
   147  1.4600000000000D+00 -2.8719806111629D-07  3.3493903712889D-06
   148  1.4700000000000D+00 -3.2211649376656D-07  8.2458302023928D-07
   149  1.4800000000000D+00 -9.7180557328735D-08  2.4877160599152D-07
   150  1.4900000000000D+00  0.0000000000000D+00  0.0000000000000D+00
   151  1.5000000000000D+00  0.0000000000000D+00  0.0000000000000D+00
   152  1.5100000000000D+00  0.0000000000000D+00  0.0000000000000D+00
   153  1.5200000000000D+00  0.0000000000000D+00  0.0000000000000D+00
   154  1.5300000000000D+00  0.0000000000000D+00  0.0000000000000D+00
   155  1.5400000000000D+00  0.0000000000000D+00  0.0000000000000D+00
   156  1.5500000000000D+00  0.0000000000000D+00  0.0000000000000D+00
   157  1.5600000000000D+00  0.0000000000000D+00  0.0000000000000D+00
   158  1.5700000000000D+00  0.0000000000000D+00  0.0000000000000D+00
   159  1.5800000000000D+00  0.0000000000000D+00  0.0000000000000D+00
   160  1.5900000000000D+00  0.0000000000000D+00  0.0000000000000D+00
   161  1.6000000000000D+00  0.0000000000000D+00  0.0000000000000D+00
   162  1.6100000000000D+00  0.0000000000000D+00  0.0000000000000D+00
   163  1.6200000000000D+00  0.0000000000000D+00  0.0000000000000D+00
   164  1.6300000000000D+00  0.0000000000000D+00  0.0000000000000D+00
   165  1.6400000000000D+00  0.0000000000000D+00  0.0000000000000D+00
   166  1.6500000000000D+00  0.0000000000000D+00  0.0000000000000D+00
   167  1.6600000000000D+00  0.0000000000000D+00  0.0000000000000D+00
   168  1.6700000000000D+00  0.0000000000000D+00  0.0000000000000D+00
   169  1.6800000000000D+00  0.0000000000000D+00  0.0000000000000D+00
   170  1.6900000000000D+00  0.0000000000000D+00  0.0000000000000D+00
   171  1.7000000000000D+00  0.0000000000000D+00  0.0000000000000D+00
   172  1.7100000000000D+00  0.0000000000000D+00  0.0000000000000D+00
   173  1.7200000000000D+00  0.0000000000000D+00  0.0000000000000D+00
   174  1.7300000000000D+00  0.0000000000000D+00  0.0000000000000D+00
   175  1.7400000000000D+00  0.0000000000000D+00  0.0000000000000D+00
   176  1.7500000000000D+00  0.0000000000000D+00  0.0000000000000D+00
   177  1.7600000000000D+00  0.0000000000000D+00  0.0000000000000D+00
   178  1.7700000000000D+00  0.0000000000000D+00  0.0000000000000D+00
   179  1.7800000000000D+00  0.0000000000000D+00  0.0000000000000D+00
   180  1.7900000000000D+00  0.0000000000000D+00  0.0000000000000D+00
   181  1.8000000000000D+00  0.0000000000000D+00  0.0000000000000D+00
   182  1.8100000000000D+00  0.0000000000000D+00  0.0000000000000D+00
   183  1.8200000000000D+00  0.0000000000000D+00  0.0000000000000D+00
   184  1.8300000000000D+00  0.0000000000000D+00  0.0000000000000D+00
   185  1.8400000000000D+00  0.0000000000000D+00  0.0000000000000D+00
   186  1.8500000000000D+00  0.0000000000000D+00  0.0000000000000D+00
   187  1.8600000000000D+00  0.0000000000000D+00  0.0000000000000D+00
   188  1.8700000000000D+00  0.0000000000000D+00  0.0000000000000D+00
   189  1.8800000000000D+00  0.0000000000000D+00  0.0000000000000D+00
   190  1.8900000000000D+00  0.0000000000000D+00  0.0000000000000D+00
   191  1.9000000000000D+00  0.0000000000000D+00  0.0000000000000D+00
   192  1.9100000000000D+00  0.0000000000000D+00  0.0000000000000D+00
   193  1.9200000000000D+00  0.0000000000000D+00  0.0000000000000D+00
   194  1.9300000000000D+00  0.0000000000000D+00  0.0000000000000D+00
   195  1.9400000000000D+00  0.0000000000000D+00  0.0000000000000D+00
   196  1.9500000000000D+00  0.0000000000000D+00  0.0000000000000D+00
   197  1.9600000000000D+00  0.0000000000000D+00  0.0000000000000D+00
   198  1.9700000000000D+00  0.0000000000000D+00  0.0000000000000D+00
   199  1.9800000000000D+00  0.0000000000000D+00  0.0000000000000D+00
   200  1.9900000000000D+00  0.0000000000000D+00  0.0000000000000D+00
   201  2.0000000000000D+00  0.0000000000000D+00  0.0000000000000D+00
   202  2.0100000000000D+00  0.0000000000000D+00  0.0000000000000D+00
   203  2.0200000000000D+00  0.0000000000000D+00  0.0000000000000D+00
   204  2.0300000000000D+00  0.0000000000000D+00  0.0000000000000D+00
   205  2.0400000000000D+00  0.0000000000000D+00  0.0000000000000D+00
   206  2.0500000000000D+00  0.0000000000000D+00  0.0000000000000D+00
   207  2.0600000000000D+00  0.0000000000000D+00  0.0000000000000D+00
   208  2.0700000000000D+00  0.0000000000000D+00  0.0000000000000D+00
   209  2.0800000000000D+00  0.0000000000000D+00  0.0000000000000D+00
   210  2.0900000000000D+00  0.0000000000000D+00  0.0000000000000D+00
   211  2.1000000000000D+00  0.0000000000000D+00  0.0000000000000D+00
   212  2.1100000000000D+00  0.0000000000000D+00  0.0000000000000D+00
   213  2.1200000000000D+00  0.0000000000000D+00  0.0000000000000D+00
   214  2.1300000000000D+00  0.0000000000000D+00  0.0000000000000D+00
   215  2.1400000000000D+00  0.0000000000000D+00  0.0000000000000D+00
   216  2.1500000000000D+00  0.0000000000000D+00  0.0000000000000D+00
   217  2.1600000000000D+00  0.0000000000000D+00  0.0000000000000D+00
   218  2.1700000000000D+00  0.0000000000000D+00  0.0000000000000D+00
   219  2.1800000000000D+00  0.0000000000000D+00  0.0000000000000D+00
   220  2.1900000000000D+00  0.0000000000000D+00  0.0000000000000D+00
   221  2.2000000000000D+00  0.0000000000000D+00  0.0000000000000D+00
   222  2.2100000000000D+00  0.0000000000000D+00  0.0000000000000D+00
   223  2.2200000000000D+00  0.0000000000000D+00  0.0000000000000D+00
   224  2.2300000000000D+00  0.0000000000000D+00  0.0000000000000D+00
   225  2.2400000000000D+00  0.0000000000000D+00  0.0000000000000D+00
   226  2.2500000000000D+00  0.0000000000000D+00  0.0000000000000D+00
   227  2.2600000000000D+00  0.0000000000000D+00  0.0000000000000D+00
   228  2.2700000000000D+00  0.0000000000000D+00  0.0000000000000D+00
   229  2.2800000000000D+00  0.0000000000000D+00  0.0000000000000D+00
   230  2.2900000000000D+00  0.0000000000000D+00  0.0000000000000D+00
   231  2.3000000000000D+00  0.0000000000000D+00  0.0000000000000D+00
   232  2.3100000000000D+00  0.0000000000000D+00  0.0000000000000D+00
   233  2.3200000000000D+00  0.0000000000000D+00  0.0000000000000D+00
   234  2.3300000000000D+00  0.0000000000000D+00  0.0000000000000D+00
   235  2.3400000000000D+00  0.0000000000000D+00  0.0000000000000D+00
   236  2.3500000000000D+00  0.0000000000000D+00  0.0000000000000D+00
   237  2.3600000000000D+00  0.0000000000000D+00  0.0000000000000D+00
   238  2.3700000000000D+00  0.0000000000000D+00  0.0000000000000D+00
   239  2.3800000000000D+00  0.0000000000000D+00  0.0000000000000D+00
   240  2.3900000000000D+00  0.0000000000000D+00  0.0000000000000D+00
   241  2.4000000000000D+00  0.0000000000000D+00  0.0000000000000D+00
   242  2.4100000000000D+00  0.0000000000000D+00  0.0000000000000D+00
   243  2.4200000000000D+00  0.0000000000000D+00  0.0000000000000D+00
   244  2.4300000000000D+00  0.0000000000000D+00  0.0000000000000D+00
   245  2.4400000000000D+00  0.0000000000000D+00  0.0000000000000D+00
   246  2.4500000000000D+00  0.0000000000000D+00  0.0000000000000D+00
   247  2.4600000000000D+00  0.0000000000000D+00  0.0000000000000D+00
   248  2.4700000000000D+00  0.0000000000000D+00  0.0000000000000D+00
   249  2.4800000000000D+00  0.0000000000000D+00  0.0000000000000D+00
   250  2.4900000000000D+00  0.0000000000000D+00  0.0000000000000D+00
   251  2.5000000000000D+00  0.0000000000000D+00  0.0000000000000D+00
   252  2.5100000000000D+00  0.0000000000000D+00  0.0000000000000D+00
   253  2.5200000000000D+00  0.0000000000000D+00  0.0000000000000D+00
   254  2.5300000000000D+00  0.0000000000000D+00  0.0000000000000D+00
   255  2.5400000000000D+00  0.0000000000000D+00  0.0000000000000D+00
   256  2.5500000000000D+00  0.0000000000000D+00  0.0000000000000D+00
   257  2.5600000000000D+00  0.0000000000000D+00  0.0000000000000D+00
   258  2.5700000000000D+00  0.0000000000000D+00  0.0000000000000D+00
   259  2.5800000000000D+00  0.0000000000000D+00  0.0000000000000D+00
   260  2.5900000000000D+00  0.0000000000000D+00  0.0000000000000D+00
   261  2.6000000000000D+00  0.0000000000000D+00  0.0000000000000D+00
   262  2.6100000000000D+00  0.0000000000000D+00  0.0000000000000D+00
   263  2.6200000000000D+00  0.0000000000000D+00  0.0000000000000D+00
   264  2.6300000000000D+00  0.0000000000000D+00  0.0000000000000D+00
   265  2.6400000000000D+00  0.0000000000000D+00  0.0000000000000D+00
   266  2.6500000000000D+00  0.0000000000000D+00  0.0000000000000D+00
   267  2.6600000000000D+00  0.0000000000000D+00  0.0000000000000D+00
   268  2.6700000000000D+00  0.0000000000000D+00  0.0000000000000D+00
   269  2.6800000000000D+00  0.0000000000000D+00  0.0000000000000D+00
   270  2.6900000000000D+00  0.0000000000000D+00  0.0000000000000D+00
   271  2.7000000000000D+00  0.0000000000000D+00  0.0000000000000D+00
   272  2.7100000000000D+00  0.0000000000000D+00  0.0000000000000D+00
   273  2.7200000000000D+00  0.0000000000000D+00  0.0000000000000D+00
   274  2.7300000000000D+00  0.0000000000000D+00  0.0000000000000D+00
   275  2.7400000000000D+00  0.0000000000000D+00  0.0000000000000D+00
   276  2.7500000000000D+00  0.0000000000000D+00  0.0000000000000D+00
   277  2.7600000000000D+00  0.0000000000000D+00  0.0000000000000D+00
   278  2.7700000000000D+00  0.0000000000000D+00  0.0000000000000D+00
   279  2.7800000000000D+00  0.0000000000000D+00  0.0000000000000D+00
   280  2.7900000000000D+00  0.0000000000000D+00  0.0000000000000D+00
   281  2.8000000000000D+00  0.0000000000000D+00  0.0000000000000D+00
   282  2.8100000000000D+00  0.0000000000000D+00  0.0000000000000D+00
   283  2.8200000000000D+00  0.0000000000000D+00  0.0000000000000D+00
   284  2.8300000000000D+00  0.0000000000000D+00  0.0000000000000D+00
   285  2.8400000000000D+00  0.0000000000000D+00  0.0000000000000D+00
   286  2.8500000000000D+00  0.0000000000000D+00  0.0000000000000D+00
   287  2.8600000000000D+00  0.0000000000000D+00  0.0000000000000D+00
   288  2.8700000000000D+00  0.0000000000000D+00  0.0000000000000D+00
   289  2.8800000000000D+00  0.0000000000000D+00  0.0000000000000D+00
   290  2.8900000000000D+00  0.0000000000000D+00  0.0000000000000D+00
   291  2.9000000000000D+00  0.0000000000000D+00  0.0000000000000D+00
   292  2.9100000000000D+00  0.0000000000000D+00  0.0000000000000D+00
   293  2.9200000000000D+00  0.0000000000000D+00  0.0000000000000D+00
   294  2.9300000000000D+00  0.0000000000000D+00  0.0000000000000D+00
   295  2.9400000000000D+00  0.0000000000000D+00  0.0000000000000D+00
   296  2.9500000000000D+00  0.0000000000000D+00  0.0000000000000D+00
   297  2.9600000000000D+00  0.0000000000000D+00  0.0000000000000D+00
   298  2.9700000000000D+00  0.0000000000000D+00  0.0000000000000D+00
   299  2.9800000000000D+00  0.0000000000000D+00  0.0000000000000D+00
   300  2.9900000000000D+00  0.0000000000000D+00  0.0000000000000D+00
   301  3.0000000000000D+00  0.0000000000000D+00  0.0000000000000D+00
   302  3.0100000000000D+00  0.0000000000000D+00  0.0000000000000D+00
   303  3.0200000000000D+00  0.0000000000000D+00  0.0000000000000D+00
   304  3.0300000000000D+00  0.0000000000000D+00  0.0000000000000D+00
   305  3.0400000000000D+00  0.0000000000000D+00  0.0000000000000D+00
   306  3.0500000000000D+00  0.0000000000000D+00  0.0000000000000D+00
   307  3.0600000000000D+00  0.0000000000000D+00  0.0000000000000D+00
   308  3.0700000000000D+00  0.0000000000000D+00  0.0000000000000D+00
   309  3.0800000000000D+00  0.0000000000000D+00  0.0000000000000D+00
   310  3.0900000000000D+00  0.0000000000000D+00  0.0000000000000D+00
   311  3.1000000000000D+00  0.0000000000000D+00  0.0000000000000D+00
   312  3.1100000000000D+00  0.0000000000000D+00  0.0000000000000D+00
   313  3.1200000000000D+00  0.0000000000000D+00  0.0000000000000D+00
   314  3.1300000000000D+00  0.0000000000000D+00  0.0000000000000D+00
   315  3.1400000000000D+00  0.0000000000000D+00  0.0000000000000D+00
   316  3.1500000000000D+00  0.0000000000000D+00  0.0000000000000D+00
   317  3.1600000000000D+00  0.0000000000000D+00  0.0000000000000D+00
   318  3.1700000000000D+00  0.0000000000000D+00  0.0000000000000D+00
   319  3.1800000000000D+00  0.0000000000000D+00  0.0000000000000D+00
   320  3.1900000000000D+00  0.0000000000000D+00  0.0000000000000D+00
   321  3.2000000000000D+00  0.0000000000000D+00  0.0000000000000D+00
   322  3.2100000000000D+00  0.0000000000000D+00  0.0000000000000D+00
   323  3.2200000000000D+00  0.0000000000000D+00  0.0000000000000D+00
   324  3.2300000000000D+00  0.0000000000000D+00  0.0000000000000D+00
   325  3.2400000000000D+00  0.0000000000000D+00  0.0000000000000D+00
   326  3.2500000000000D+00  0.0000000000000D+00  0.0000000000000D+00
   327  3.2600000000000D+00  0.0000000000000D+00  0.0000000000000D+00
   328  3.2700000000000D+00  0.0000000000000D+00  0.0000000000000D+00
   329  3.2800000000000D+00  0.0000000000000D+00  0.0000000000000D+00
   330  3.2900000000000D+00  0.0000000000000D+00  0.0000000000000D+00
   331  3.3000000000000D+00  0.0000000000000D+00  0.0000000000000D+00
   332  3.3100000000000D+00  0.0000000000000D+00  0.0000000000000D+00
   333  3.3200000000000D+00  0.0000000000000D+00  0.0000000000000D+00
   334  3.3300000000000D+00  0.0000000000000D+00  0.0000000000000D+00
   335  3.3400000000000D+00  0.0000000000000D+00  0.0000000000000D+00
   336  3.3500000000000D+00  0.0000000000000D+00  0.0000000000000D+00
   337  3.3600000000000D+00  0.0000000000000D+00  0.0000000000000D+00
   338  3.3700000000000D+00  0.0000000000000D+00  0.0000000000000D+00
   339  3.3800000000000D+00  0.0000000000000D+00  0.0000000000000D+00
   340  3.3900000000000D+00  0.0000000000000D+00  0.0000000000000D+00
   341  3.4000000000000D+00  0.0000000000000D+00  0.0000000000000D+00
   342  3.4100000000000D+00  0.0000000000000D+00  0.0000000000000D+00
   343  3.4200000000000D+00  0.0000000000000D+00  0.0000000000000D+00
   344  3.4300000000000D+00  0.0000000000000D+00  0.0000000000000D+00
   345  3.4400000000000D+00  0.0000000000000D+00  0.0000000000000D+00
   346  3.4500000000000D+00  0.0000000000000D+00  0.0000000000000D+00
   347  3.4600000000000D+00  0.0000000000000D+00  0.0000000000000D+00
   348  3.4700000000000D+00  0.0000000000000D+00  0.0000000000000D+00
   349  3.4800000000000D+00  0.0000000000000D+00  0.0000000000000D+00
   350  3.4900000000000D+00  0.0000000000000D+00  0.0000000000000D+00
   351  3.5000000000000D+00  0.0000000000000D+00  0.0000000000000D+00
   352  3.5100000000000D+00  0.0000000000000D+00  0.0000000000000D+00
   353  3.5200000000000D+00  0.0000000000000D+00  0.0000000000000D+00
   354  3.5300000000000D+00  0.0000000000000D+00  0.0000000000000D+00
   355  3.5400000000000D+00  0.0000000000000D+00  0.0000000000000D+00
   356  3.5500000000000D+00  0.0000000000000D+00  0.0000000000000D+00
   357  3.5600000000000D+00  0.0000000000000D+00  0.0000000000000D+00
   358  3.5700000000000D+00  0.0000000000000D+00  0.0000000000000D+00
   359  3.5800000000000D+00  0.0000000000000D+00  0.0000000000000D+00
   360  3.5900000000000D+00  0.0000000000000D+00  0.0000000000000D+00
   361  3.6000000000000D+00  0.0000000000000D+00  0.0000000000000D+00
   362  3.6100000000000D+00  0.0000000000000D+00  0.0000000000000D+00
   363  3.6200000000000D+00  0.0000000000000D+00  0.0000000000000D+00
   364  3.6300000000000D+00  0.0000000000000D+00  0.0000000000000D+00
   365  3.6400000000000D+00  0.0000000000000D+00  0.0000000000000D+00
   366  3.6500000000000D+00  0.0000000000000D+00  0.0000000000000D+00
   367  3.6600000000000D+00  0.0000000000000D+00  0.0000000000000D+00
   368  3.6700000000000D+00  0.0000000000000D+00  0.0000000000000D+00
   369  3.6800000000000D+00  0.0000000000000D+00  0.0000000000000D+00
   370  3.6900000000000D+00  0.0000000000000D+00  0.0000000000000D+00
   371  3.7000000000000D+00  0.0000000000000D+00  0.0000000000000D+00
   372  3.7100000000000D+00  0.0000000000000D+00  0.0000000000000D+00
   373  3.7200000000000D+00  0.0000000000000D+00  0.0000000000000D+00
   374  3.7300000000000D+00  0.0000000000000D+00  0.0000000000000D+00
   375  3.7400000000000D+00  0.0000000000000D+00  0.0000000000000D+00
   376  3.7500000000000D+00  0.0000000000000D+00  0.0000000000000D+00
   377  3.7600000000000D+00  0.0000000000000D+00  0.0000000000000D+00
   378  3.7700000000000D+00  0.0000000000000D+00  0.0000000000000D+00
   379  3.7800000000000D+00  0.0000000000000D+00  0.0000000000000D+00
   380  3.7900000000000D+00  0.0000000000000D+00  0.0000000000000D+00
   381  3.8000000000000D+00  0.0000000000000D+00  0.0000000000000D+00
   382  3.8100000000000D+00  0.0000000000000D+00  0.0000000000000D+00
   383  3.8200000000000D+00  0.0000000000000D+00  0.0000000000000D+00
   384  3.8300000000000D+00  0.0000000000000D+00  0.0000000000000D+00
   385  3.8400000000000D+00  0.0000000000000D+00  0.0000000000000D+00
   386  3.8500000000000D+00  0.0000000000000D+00  0.0000000000000D+00
   387  3.8600000000000D+00  0.0000000000000D+00  0.0000000000000D+00
   388  3.8700000000000D+00  0.0000000000000D+00  0.0000000000000D+00
   389  3.8800000000000D+00  0.0000000000000D+00  0.0000000000000D+00
   390  3.8900000000000D+00  0.0000000000000D+00  0.0000000000000D+00
   391  3.9000000000000D+00  0.0000000000000D+00  0.0000000000000D+00
   392  3.9100000000000D+00  0.0000000000000D+00  0.0000000000000D+00
   393  3.9200000000000D+00  0.0000000000000D+00  0.0000000000000D+00
   394  3.9300000000000D+00  0.0000000000000D+00  0.0000000000000D+00
   395  3.9400000000000D+00  0.0000000000000D+00  0.0000000000000D+00
   396  3.9500000000000D+00  0.0000000000000D+00  0.0000000000000D+00
   397  3.9600000000000D+00  0.0000000000000D+00  0.0000000000000D+00
   398  3.9700000000000D+00  0.0000000000000D+00  0.0000000000000D+00
   399  3.9800000000000D+00  0.0000000000000D+00  0.0000000000000D+00
   400  3.9900000000000D+00  0.0000000000000D+00  0.0000000000000D+00
   401  4.0000000000000D+00  0.0000000000000D+00  0.0000000000000D+00
   402  4.0100000000000D+00  0.0000000000000D+00  0.0000000000000D+00
   403  4.0200000000000D+00  0.0000000000000D+00  0.0000000000000D+00
   404  4.0300000000000D+00  0.0000000000000D+00  0.0000000000000D+00
   405  4.0400000000000D+00  0.0000000000000D+00  0.0000000000000D+00
   406  4.0500000000000D+00  0.0000000000000D+00  0.0000000000000D+00
   407  4.0600000000000D+00  0.0000000000000D+00  0.0000000000000D+00
   408  4.0700000000000D+00  0.0000000000000D+00  0.0000000000000D+00
   409  4.0800000000000D+00  0.0000000000000D+00  0.0000000000000D+00
   410  4.0900000000000D+00  0.0000000000000D+00  0.0000000000000D+00
   411  4.1000000000000D+00  0.0000000000000D+00  0.0000000000000D+00
   412  4.1100000000000D+00  0.0000000000000D+00  0.0000000000000D+00
   413  4.1200000000000D+00  0.0000000000000D+00  0.0000000000000D+00
   414  4.1300000000000D+00  0.0000000000000D+00  0.0000000000000D+00
   415  4.1400000000000D+00  0.0000000000000D+00  0.0000000000000D+00
   416  4.1500000000000D+00  0.0000000000000D+00  0.0000000000000D+00
   417  4.1600000000000D+00  0.0000000000000D+00  0.0000000000000D+00
   418  4.1700000000000D+00  0.0000000000000D+00  0.0000000000000D+00
   419  4.1800000000000D+00  0.0000000000000D+00  0.0000000000000D+00
   420  4.1900000000000D+00  0.0000000000000D+00  0.0000000000000D+00
   421  4.2000000000000D+00  0.0000000000000D+00  0.0000000000000D+00
   422  4.2100000000000D+00  0.0000000000000D+00  0.0000000000000D+00