I     ONCVPSP-3.3.0  r_core=   2.02042   2.17032   2.27639
     53.0000      7.0000      220408    zatom,zion,pspd
     8       2   2     4   600     0    pspcod,pspxc,lmax,lloc,mmax,r2well
  5.99000000  0.00000000  0.00000000    rchrg fchrg qchrg
     2     2     2     0     0    nproj
     1     1           extension_switch
   0                         6.0735728892347D+00  9.5396698611322D-01
     1  0.0000000000000D+00  7.0239647431691D-12 -4.9452331118971D-11
     2  1.0000000000000D-02  1.4436374368802D-02  2.5115465177473D-02
     3  2.0000000000000D-02  2.8900361856919D-02  5.0091897374159D-02
     4  3.0000000000000D-02  4.3419438392390D-02  7.4790924316744D-02
     5  4.0000000000000D-02  5.8020806022872D-02  9.9075492227508D-02
     6  5.0000000000000D-02  7.2731257229124D-02  1.2281051778625D-01
     7  6.0000000000000D-02  8.7577040737940D-02  1.4586353138408D-01
     8  7.0000000000000D-02  1.0258372932613D-01  1.6810530882436D-01
     9  8.0000000000000D-02  1.1777609010010D-01  1.8941048867558D-01
    10  9.0000000000000D-02  1.3317795772689D-01  2.0965817254231D-01
    11  1.0000000000000D-01  1.4881211108209D-01  2.2873250559353D-01
    12  1.1000000000000D-01  1.6470015376800D-01  2.4652323477213D-01
    13  1.2000000000000D-01  1.8086239894186D-01  2.6292624220523D-01
    14  1.3000000000000D-01  1.9731775887847D-01  2.7784405144104D-01
    15  1.4000000000000D-01  2.1408363967534D-01  2.9118630425480D-01
    16  1.5000000000000D-01  2.3117584148972D-01  3.0287020589255D-01
    17  1.6000000000000D-01  2.4860846467791D-01  3.1282093675722D-01
    18  1.7000000000000D-01  2.6639382218608D-01  3.2097202868574D-01
    19  1.8000000000000D-01  2.8454235851979D-01  3.2726570411849D-01
    20  1.9000000000000D-01  3.0306257559632D-01  3.3165317662203D-01
    21  2.0000000000000D-01  3.2196096575951D-01  3.3409491139296D-01
    22  2.1000000000000D-01  3.4124195221134D-01  3.3456084454350D-01
    23  2.2000000000000D-01  3.6090783708864D-01  3.3303056014766D-01
    24  2.3000000000000D-01  3.8095875738591D-01  3.2949342420956D-01
    25  2.4000000000000D-01  4.0139264889772D-01  3.2394867490250D-01
    26  2.5000000000000D-01  4.2220521832567D-01  3.1640546861692D-01
    27  2.6000000000000D-01  4.4338992366608D-01  3.0688288154776D-01
    28  2.7000000000000D-01  4.6493796296521D-01  2.9540986674543D-01
    29  2.8000000000000D-01  4.8683827149918D-01  2.8202516674858D-01
    30  2.9000000000000D-01  5.0907752740602D-01  2.6677718211150D-01
    31  3.0000000000000D-01  5.3164016576716D-01  2.4972379633184D-01
    32  3.1000000000000D-01  5.5450840110588D-01  2.3093215787581D-01
    33  3.2000000000000D-01  5.7766225824040D-01  2.1047842018673D-01
    34  3.3000000000000D-01  6.0107961139955D-01  1.8844744074816D-01
    35  3.4000000000000D-01  6.2473623147972D-01  1.6493244045386D-01
    36  3.5000000000000D-01  6.4860584129301D-01  1.4003462471272D-01
    37  3.6000000000000D-01  6.7266017862802D-01  1.1386276788697D-01
    38  3.7000000000000D-01  6.9686906691693D-01  8.6532762825862D-02
    39  3.8000000000000D-01  7.2120049327587D-01  5.8167137412750D-02
    40  3.9000000000000D-01  7.4562069365894D-01  2.8894540192421D-02
    41  4.0000000000000D-01  7.7009424484139D-01 -1.1508027153645D-03
    42  4.1000000000000D-01  7.9458416292302D-01 -3.1829657079437D-02
    43  4.2000000000000D-01  8.1905200801973D-01 -6.2998373941161D-02
    44  4.3000000000000D-01  8.4345799478935D-01 -9.4509504351624D-02
    45  4.4000000000000D-01  8.6776110841701D-01 -1.2621243279640D-01
    46  4.5000000000000D-01  8.9191922566594D-01 -1.5795402655428D-01
    47  4.6000000000000D-01  9.1588924058194D-01 -1.8957929816104D-01
    48  4.7000000000000D-01  9.3962719442283D-01 -2.2093207808561D-01
    49  4.8000000000000D-01  9.6308840936961D-01 -2.5185569467530D-01
    50  4.9000000000000D-01  9.8622762556253D-01 -2.8219365838890D-01
    51  5.0000000000000D-01  1.0089991409936D+00 -3.1179034731115D-01
    52  5.1000000000000D-01  1.0313569537772D+00 -3.4049169093074D-01
    53  5.2000000000000D-01  1.0532549063110D+00 -3.6814584916548D-01
    54  5.3000000000000D-01  1.0746468308359D+00 -3.9460388363328D-01
    55  5.4000000000000D-01  1.0954866958936D+00 -4.1972041819588D-01
    56  5.5000000000000D-01  1.1157287531839D+00 -4.4335428584414D-01
    57  5.6000000000000D-01  1.1353276843160D+00 -4.6536915904821D-01
    58  5.7000000000000D-01  1.1542387469549D+00 -4.8563416076402D-01
    59  5.8000000000000D-01  1.1724179198605D+00 -5.0402445336760D-01
    60  5.9000000000000D-01  1.1898220463258D+00 -5.2042180288230D-01
    61  6.0000000000000D-01  1.2064089755245D+00 -5.3471511596808D-01
    62  6.1000000000000D-01  1.2221377012848D+00 -5.4680094725952D-01
    63  6.2000000000000D-01  1.2369684978189D+00 -5.5658397476620D-01
    64  6.3000000000000D-01  1.2508630519447D+00 -5.6397744118793D-01
    65  6.4000000000000D-01  1.2637845913533D+00 -5.6890355914555D-01
    66  6.5000000000000D-01  1.2756980084850D+00 -5.7129387848558D-01
    67  6.6000000000000D-01  1.2865699795986D+00 -5.7108961398390D-01
    68  6.7000000000000D-01  1.2963690786293D+00 -5.6824193194818D-01
    69  6.8000000000000D-01  1.3050658854554D+00 -5.6271219439997D-01
    70  6.9000000000000D-01  1.3126330882094D+00 -5.5447215970636D-01
    71  7.0000000000000D-01  1.3190455792926D+00 -5.4350413872451D-01
    72  7.1000000000000D-01  1.3242805447760D+00 -5.2980110572114D-01
    73  7.2000000000000D-01  1.3283175468890D+00 -5.1336676353134D-01
    74  7.3000000000000D-01  1.3311385993287D+00 -4.9421556262649D-01
    75  7.4000000000000D-01  1.3327282351420D+00 -4.7237267396881D-01
    76  7.5000000000000D-01  1.3330735669630D+00 -4.4787391573806D-01
    77  7.6000000000000D-01  1.3321643394128D+00 -4.2076563422472D-01
    78  7.7000000000000D-01  1.3299929734976D+00 -3.9110453939163D-01
    79  7.8000000000000D-01  1.3265546028688D+00 -3.5895749581196D-01
    80  7.9000000000000D-01  1.3218471018368D+00 -3.2440126989421D-01
    81  8.0000000000000D-01  1.3158711050592D+00 -2.8752223450454D-01
    82  8.1000000000000D-01  1.3086300188540D+00 -2.4841603229114D-01
    83  8.2000000000000D-01  1.3001300241146D+00 -2.0718719920433D-01
    84  8.3000000000000D-01  1.2903800708354D+00 -1.6394874988849D-01
    85  8.4000000000000D-01  1.2793918642844D+00 -1.1882172679674D-01
    86  8.5000000000000D-01  1.2671798428860D+00 -7.1934715046360D-02
    87  8.6000000000000D-01  1.2537611479079D+00 -2.3423325190146D-02
    88  8.7000000000000D-01  1.2391555850729D+00  2.6570353773038D-02
    89  8.8000000000000D-01  1.2233855782408D+00  7.7898328688417D-02
    90  8.9000000000000D-01  1.2064761153362D+00  1.3040730125001D-01
    91  9.0000000000000D-01  1.1884546867210D+00  1.8393928901983D-01
    92  9.1000000000000D-01  1.1693512162342D+00  2.3833226566034D-01
    93  9.2000000000000D-01  1.1491979851479D+00  2.9342081749046D-01
    94  9.3000000000000D-01  1.1280295493095D+00  3.4903681340033D-01
    95  9.4000000000000D-01  1.1058826497610D+00  4.0501008509954D-01
    96  9.5000000000000D-01  1.0827961171488D+00  4.6116911462678D-01
    97  9.6000000000000D-01  1.0588107702532D+00  5.1734172601626D-01
    98  9.7000000000000D-01  1.0339693089887D+00  5.7335577799939D-01
    99  9.8000000000000D-01  1.0083162022382D+00  6.2903985461705D-01
   100  9.9000000000000D-01  9.8189757090175D-01  6.8422395063062D-01
   101  1.0000000000000D+00  9.5476106655320D-01  7.3874014864669D-01
   102  1.0100000000000D+00  9.2695574610974D-01  7.9242328491208D-01
   103  1.0200000000000D+00  8.9853194292948D-01  8.4511160079444D-01
   104  1.0300000000000D+00  8.6954113476099D-01  8.9664737703079D-01
   105  1.0400000000000D+00  8.4003580897593D-01  9.4687754791466D-01
   106  1.0500000000000D+00  8.1006932552112D-01  9.9565429269052D-01
   107  1.0600000000000D+00  7.7969577803011D-01  1.0428356015350D+00
   108  1.0700000000000D+00  7.4896985353664D-01  1.0882858136319D+00
   109  1.0800000000000D+00  7.1794669123270D-01  1.1318761249828D+00
   110  1.0900000000000D+00  6.8668174071309D-01  1.1734850637386D+00
   111  1.1000000000000D+00  6.5523062014556D-01  1.2129989310082D+00
   112  1.1100000000000D+00  6.2364897480145D-01  1.2503122052565D+00
   113  1.1200000000000D+00  5.9199233637550D-01  1.2853279086032D+00
   114  1.1300000000000D+00  5.6031598351775D-01  1.3179579334815D+00
   115  1.1400000000000D+00  5.2867480399016D-01  1.3481233283525D+00
   116  1.1500000000000D+00  4.9712315885179D-01  1.3757545413450D+00
   117  1.1600000000000D+00  4.6571474906304D-01  1.4007916209262D+00
   118  1.1700000000000D+00  4.3450248489108D-01  1.4231843728537D+00
   119  1.1800000000000D+00  4.0353835848027D-01  1.4428924729525D+00
   120  1.1900000000000D+00  3.7287331993849D-01  1.4598855354343D+00
   121  1.2000000000000D+00  3.4255715727368D-01  1.4741431367051D+00
   122  1.2100000000000D+00  3.1263838050182D-01  1.4856547947846D+00
   123  1.2200000000000D+00  2.8316411022372D-01  1.4944199047483D+00
   124  1.2300000000000D+00  2.5417997094985D-01  1.5004476308029D+00
   125  1.2400000000000D+00  2.2572998944402D-01  1.5037567557091D+00
   126  1.2500000000000D+00  1.9785649832213D-01  1.5043754886318D+00
   127  1.2600000000000D+00  1.7060004512619D-01  1.5023412326340D+00
   128  1.2700000000000D+00  1.4399930708406D-01  1.4977003131408D+00
   129  1.2800000000000D+00  1.1809101173008D-01  1.4905076690167D+00
   130  1.2900000000000D+00  9.2909863540434D-02  1.4808265080576D+00
   131  1.3000000000000D+00  6.8488476733309D-02  1.4687279287415D+00
   132  1.3100000000000D+00  4.4857314343092D-02  1.4542905103993D+00
   133  1.3200000000000D+00  2.2044633655125D-02  1.4375998740873D+00
   134  1.3300000000000D+00  7.6438094382317D-05  1.4187482164258D+00
   135  1.3400000000000D+00 -2.1023564396706D-02  1.3978338190227D+00
   136  1.3500000000000D+00 -4.1233996460919D-02  1.3749605360713D+00
   137  1.3600000000000D+00 -6.0535839878809D-02  1.3502372627723D+00
   138  1.3700000000000D+00 -7.8912457606848D-02  1.3237773874790D+00
   139  1.3800000000000D+00 -9.6349609313282D-02  1.2956982303485D+00
   140  1.3900000000000D+00 -1.1283546045697D-01  1.2661204714537D+00
   141  1.4000000000000D+00 -1.2836058499803D-01  1.2351675713095D+00
   142  1.4100000000000D+00 -1.4291796178984D-01  1.2029651867718D+00
   143  1.4200000000000D+00 -1.5650296478363D-01  1.1696405853210D+00
   144  1.4300000000000D+00 -1.6911334714866D-01  1.1353220606507D+00
   145  1.4400000000000D+00 -1.8074921943095D-01  1.1001383526071D+00
   146  1.4500000000000D+00 -1.9141302192473D-01  1.0642180742186D+00
   147  1.4600000000000D+00 -2.0110949137672D-01  1.0276891488847D+00
   148  1.4700000000000D+00 -2.0984562223242D-01  9.9067826028936D-01
   149  1.4800000000000D+00 -2.1763062258196D-01  9.5331031785235D-01
   150  1.4900000000000D+00 -2.2447586500741D-01  9.1570794034750D-01
   151  1.5000000000000D+00 -2.3039483254131D-01  8.7799095991516D-01
   152  1.5100000000000D+00 -2.3540305992746D-01  8.4027594930148D-01
   153  1.5200000000000D+00 -2.3951807042999D-01  8.0267577383376D-01
   154  1.5300000000000D+00 -2.4275930838476D-01  7.6529917102556D-01
   155  1.5400000000000D+00 -2.4514806775014D-01  7.2825035887485D-01
   156  1.5500000000000D+00 -2.4670741687030D-01  6.9162867526632D-01
   157  1.5600000000000D+00 -2.4746211970219D-01  6.5552824957066D-01
   158  1.5700000000000D+00 -2.4743855373696D-01  6.2003770795796D-01
   159  1.5800000000000D+00 -2.4666462486328D-01  5.8523991373642D-01
   160  1.5900000000000D+00 -2.4516967940784D-01  5.5121174318028D-01
   161  1.6000000000000D+00 -2.4298441360329D-01  5.1802389843788D-01
   162  1.6100000000000D+00 -2.4014078071047D-01  4.8574075686448D-01
   163  1.6200000000000D+00 -2.3667189605359D-01  4.5442025864699D-01
   164  1.6300000000000D+00 -2.3261194017591D-01  4.2411383095854D-01
   165  1.6400000000000D+00 -2.2799606038724D-01  3.9486635072808D-01
   166  1.6500000000000D+00 -2.2286027088311D-01  3.6671614324374D-01
   167  1.6600000000000D+00 -2.1724135172017D-01  3.3969501874375D-01
   168  1.6700000000000D+00 -2.1117674679912D-01  3.1382834347094D-01
   169  1.6800000000000D+00 -2.0470446114596D-01  2.8913514706560D-01
   170  1.6900000000000D+00 -1.9786295761817D-01  2.6562826237618D-01
   171  1.7000000000000D+00 -1.9069105332833D-01  2.4331449912866D-01
   172  1.7100000000000D+00 -1.8322781588556D-01  2.2219484720267D-01
   173  1.7200000000000D+00 -1.7551245975033D-01  2.0226471057361D-01
   174  1.7300000000000D+00 -1.6758424277283D-01  1.8351416735245D-01
   175  1.7400000000000D+00 -1.5948236321554D-01  1.6592825662775D-01
   176  1.7500000000000D+00 -1.5124585729925D-01  1.4948728735012D-01
   177  1.7600000000000D+00 -1.4291349757354D-01  1.3416716947006D-01
   178  1.7700000000000D+00 -1.3452369213190D-01  1.1993976272787D-01
   179  1.7800000000000D+00 -1.2611438495463D-01  1.0677324249551D-01
   180  1.7900000000000D+00 -1.1772295740150D-01  9.4632478623620D-02
   181  1.8000000000000D+00 -1.0938613110202D-01  8.3479425717272D-02
   182  1.8100000000000D+00 -1.0113987228265D-01  7.3273521492589D-02
   183  1.8200000000000D+00 -9.3019297731370D-02  6.3972090760638D-02
   184  1.8300000000000D+00 -8.5058582469194D-02  5.5530752292330D-02
   185  1.8400000000000D+00 -7.7290869272413D-02  4.7903825597351D-02
   186  1.8500000000000D+00 -6.9748180154358D-02  4.1044735076396D-02
   187  1.8600000000000D+00 -6.2461329891199D-02  3.4906408764721D-02
   188  1.8700000000000D+00 -5.5459841740474D-02  2.9441668584467D-02
   189  1.8800000000000D+00 -4.8771865385161D-02  2.4603610532407D-02
   190  1.8900000000000D+00 -4.2424097279690D-02  2.0345970262534D-02
   191  1.9000000000000D+00 -3.6441703404925D-02  1.6623474482280D-02
   192  1.9100000000000D+00 -3.0848244601660D-02  1.3392172158687D-02
   193  1.9200000000000D+00 -2.5665604508076D-02  1.0609747041642D-02
   194  1.9300000000000D+00 -2.0913920226406D-02  8.2358061026169D-03
   195  1.9400000000000D+00 -1.6611515786965D-02  6.2321439486240D-03
   196  1.9500000000000D+00 -1.2775065322342D-02  4.5630208265280D-03
   197  1.9600000000000D+00 -9.4213704279550D-03  3.1956928799850D-03
   198  1.9700000000000D+00 -6.5560203778933D-03  2.0986177367421D-03
   199  1.9800000000000D+00 -4.1804427074277D-03  1.2436010129036D-03
   200  1.9900000000000D+00 -2.3294534973037D-03  6.0952474512214D-04
   201  2.0000000000000D+00 -1.0341189044954D-03  1.7662422029152D-04
   202  2.0100000000000D+00 -2.6919623791280D-04 -7.5233212832638D-05
   203  2.0200000000000D+00  7.4110041454173D-05 -1.6806287085117D-04
   204  2.0300000000000D+00  1.2627207113529D-04 -1.2772723554753D-04
   205  2.0400000000000D+00  4.5098298118670D-05 -3.8202039549648D-05
   206  2.0500000000000D+00 -2.3916814707607D-05  1.9218370937180D-05
   207  2.0600000000000D+00 -2.7585865576920D-05  2.1071510020609D-05
   208  2.0700000000000D+00  7.6798229925143D-07 -6.8647773661040D-07
   209  2.0800000000000D+00  6.1773241325587D-06 -5.3731243857049D-06
   210  2.0900000000000D+00  2.8246467588663D-06 -2.4067903556924D-06
   211  2.1000000000000D+00 -1.6993094256825D-07  3.5354541589533D-07
   212  2.1100000000000D+00 -2.0271321527509D-07  4.2174972326259D-07
   213  2.1200000000000D+00  0.0000000000000D+00  0.0000000000000D+00
   214  2.1300000000000D+00  0.0000000000000D+00  0.0000000000000D+00
   215  2.1400000000000D+00  0.0000000000000D+00  0.0000000000000D+00
   216  2.1500000000000D+00  0.0000000000000D+00  0.0000000000000D+00
   217  2.1600000000000D+00  0.0000000000000D+00  0.0000000000000D+00
   218  2.1700000000000D+00  0.0000000000000D+00  0.0000000000000D+00
   219  2.1800000000000D+00  0.0000000000000D+00  0.0000000000000D+00
   220  2.1900000000000D+00  0.0000000000000D+00  0.0000000000000D+00
   221  2.2000000000000D+00  0.0000000000000D+00  0.0000000000000D+00
   222  2.2100000000000D+00  0.0000000000000D+00  0.0000000000000D+00
   223  2.2200000000000D+00  0.0000000000000D+00  0.0000000000000D+00
   224  2.2300000000000D+00  0.0000000000000D+00  0.0000000000000D+00
   225  2.2400000000000D+00  0.0000000000000D+00  0.0000000000000D+00
   226  2.2500000000000D+00  0.0000000000000D+00  0.0000000000000D+00
   227  2.2600000000000D+00  0.0000000000000D+00  0.0000000000000D+00
   228  2.2700000000000D+00  0.0000000000000D+00  0.0000000000000D+00
   229  2.2800000000000D+00  0.0000000000000D+00  0.0000000000000D+00
   230  2.2900000000000D+00  0.0000000000000D+00  0.0000000000000D+00
   231  2.3000000000000D+00  0.0000000000000D+00  0.0000000000000D+00
   232  2.3100000000000D+00  0.0000000000000D+00  0.0000000000000D+00
   233  2.3200000000000D+00  0.0000000000000D+00  0.0000000000000D+00
   234  2.3300000000000D+00  0.0000000000000D+00  0.0000000000000D+00
   235  2.3400000000000D+00  0.0000000000000D+00  0.0000000000000D+00
   236  2.3500000000000D+00  0.0000000000000D+00  0.0000000000000D+00
   237  2.3600000000000D+00  0.0000000000000D+00  0.0000000000000D+00
   238  2.3700000000000D+00  0.0000000000000D+00  0.0000000000000D+00
   239  2.3800000000000D+00  0.0000000000000D+00  0.0000000000000D+00
   240  2.3900000000000D+00  0.0000000000000D+00  0.0000000000000D+00
   241  2.4000000000000D+00  0.0000000000000D+00  0.0000000000000D+00
   242  2.4100000000000D+00  0.0000000000000D+00  0.0000000000000D+00
   243  2.4200000000000D+00  0.0000000000000D+00  0.0000000000000D+00
   244  2.4300000000000D+00  0.0000000000000D+00  0.0000000000000D+00
   245  2.4400000000000D+00  0.0000000000000D+00  0.0000000000000D+00
   246  2.4500000000000D+00  0.0000000000000D+00  0.0000000000000D+00
   247  2.4600000000000D+00  0.0000000000000D+00  0.0000000000000D+00
   248  2.4700000000000D+00  0.0000000000000D+00  0.0000000000000D+00
   249  2.4800000000000D+00  0.0000000000000D+00  0.0000000000000D+00
   250  2.4900000000000D+00  0.0000000000000D+00  0.0000000000000D+00
   251  2.5000000000000D+00  0.0000000000000D+00  0.0000000000000D+00
   252  2.5100000000000D+00  0.0000000000000D+00  0.0000000000000D+00
   253  2.5200000000000D+00  0.0000000000000D+00  0.0000000000000D+00
   254  2.5300000000000D+00  0.0000000000000D+00  0.0000000000000D+00
   255  2.5400000000000D+00  0.0000000000000D+00  0.0000000000000D+00
   256  2.5500000000000D+00  0.0000000000000D+00  0.0000000000000D+00
   257  2.5600000000000D+00  0.0000000000000D+00  0.0000000000000D+00
   258  2.5700000000000D+00  0.0000000000000D+00  0.0000000000000D+00
   259  2.5800000000000D+00  0.0000000000000D+00  0.0000000000000D+00
   260  2.5900000000000D+00  0.0000000000000D+00  0.0000000000000D+00
   261  2.6000000000000D+00  0.0000000000000D+00  0.0000000000000D+00
   262  2.6100000000000D+00  0.0000000000000D+00  0.0000000000000D+00
   263  2.6200000000000D+00  0.0000000000000D+00  0.0000000000000D+00
   264  2.6300000000000D+00  0.0000000000000D+00  0.0000000000000D+00
   265  2.6400000000000D+00  0.0000000000000D+00  0.0000000000000D+00
   266  2.6500000000000D+00  0.0000000000000D+00  0.0000000000000D+00
   267  2.6600000000000D+00  0.0000000000000D+00  0.0000000000000D+00
   268  2.6700000000000D+00  0.0000000000000D+00  0.0000000000000D+00
   269  2.6800000000000D+00  0.0000000000000D+00  0.0000000000000D+00
   270  2.6900000000000D+00  0.0000000000000D+00  0.0000000000000D+00
   271  2.7000000000000D+00  0.0000000000000D+00  0.0000000000000D+00
   272  2.7100000000000D+00  0.0000000000000D+00  0.0000000000000D+00
   273  2.7200000000000D+00  0.0000000000000D+00  0.0000000000000D+00
   274  2.7300000000000D+00  0.0000000000000D+00  0.0000000000000D+00
   275  2.7400000000000D+00  0.0000000000000D+00  0.0000000000000D+00
   276  2.7500000000000D+00  0.0000000000000D+00  0.0000000000000D+00
   277  2.7600000000000D+00  0.0000000000000D+00  0.0000000000000D+00
   278  2.7700000000000D+00  0.0000000000000D+00  0.0000000000000D+00
   279  2.7800000000000D+00  0.0000000000000D+00  0.0000000000000D+00
   280  2.7900000000000D+00  0.0000000000000D+00  0.0000000000000D+00
   281  2.8000000000000D+00  0.0000000000000D+00  0.0000000000000D+00
   282  2.8100000000000D+00  0.0000000000000D+00  0.0000000000000D+00
   283  2.8200000000000D+00  0.0000000000000D+00  0.0000000000000D+00
   284  2.8300000000000D+00  0.0000000000000D+00  0.0000000000000D+00
   285  2.8400000000000D+00  0.0000000000000D+00  0.0000000000000D+00
   286  2.8500000000000D+00  0.0000000000000D+00  0.0000000000000D+00
   287  2.8600000000000D+00  0.0000000000000D+00  0.0000000000000D+00
   288  2.8700000000000D+00  0.0000000000000D+00  0.0000000000000D+00
   289  2.8800000000000D+00  0.0000000000000D+00  0.0000000000000D+00
   290  2.8900000000000D+00  0.0000000000000D+00  0.0000000000000D+00
   291  2.9000000000000D+00  0.0000000000000D+00  0.0000000000000D+00
   292  2.9100000000000D+00  0.0000000000000D+00  0.0000000000000D+00
   293  2.9200000000000D+00  0.0000000000000D+00  0.0000000000000D+00
   294  2.9300000000000D+00  0.0000000000000D+00  0.0000000000000D+00
   295  2.9400000000000D+00  0.0000000000000D+00  0.0000000000000D+00
   296  2.9500000000000D+00  0.0000000000000D+00  0.0000000000000D+00
   297  2.9600000000000D+00  0.0000000000000D+00  0.0000000000000D+00
   298  2.9700000000000D+00  0.0000000000000D+00  0.0000000000000D+00
   299  2.9800000000000D+00  0.0000000000000D+00  0.0000000000000D+00
   300  2.9900000000000D+00  0.0000000000000D+00  0.0000000000000D+00
   301  3.0000000000000D+00  0.0000000000000D+00  0.0000000000000D+00
   302  3.0100000000000D+00  0.0000000000000D+00  0.0000000000000D+00
   303  3.0200000000000D+00  0.0000000000000D+00  0.0000000000000D+00
   304  3.0300000000000D+00  0.0000000000000D+00  0.0000000000000D+00
   305  3.0400000000000D+00  0.0000000000000D+00  0.0000000000000D+00
   306  3.0500000000000D+00  0.0000000000000D+00  0.0000000000000D+00
   307  3.0600000000000D+00  0.0000000000000D+00  0.0000000000000D+00
   308  3.0700000000000D+00  0.0000000000000D+00  0.0000000000000D+00
   309  3.0800000000000D+00  0.0000000000000D+00  0.0000000000000D+00
   310  3.0900000000000D+00  0.0000000000000D+00  0.0000000000000D+00
   311  3.1000000000000D+00  0.0000000000000D+00  0.0000000000000D+00
   312  3.1100000000000D+00  0.0000000000000D+00  0.0000000000000D+00
   313  3.1200000000000D+00  0.0000000000000D+00  0.0000000000000D+00
   314  3.1300000000000D+00  0.0000000000000D+00  0.0000000000000D+00
   315  3.1400000000000D+00  0.0000000000000D+00  0.0000000000000D+00
   316  3.1500000000000D+00  0.0000000000000D+00  0.0000000000000D+00
   317  3.1600000000000D+00  0.0000000000000D+00  0.0000000000000D+00
   318  3.1700000000000D+00  0.0000000000000D+00  0.0000000000000D+00
   319  3.1800000000000D+00  0.0000000000000D+00  0.0000000000000D+00
   320  3.1900000000000D+00  0.0000000000000D+00  0.0000000000000D+00
   321  3.2000000000000D+00  0.0000000000000D+00  0.0000000000000D+00
   322  3.2100000000000D+00  0.0000000000000D+00  0.0000000000000D+00
   323  3.2200000000000D+00  0.0000000000000D+00  0.0000000000000D+00
   324  3.2300000000000D+00  0.0000000000000D+00  0.0000000000000D+00
   325  3.2400000000000D+00  0.0000000000000D+00  0.0000000000000D+00
   326  3.2500000000000D+00  0.0000000000000D+00  0.0000000000000D+00
   327  3.2600000000000D+00  0.0000000000000D+00  0.0000000000000D+00
   328  3.2700000000000D+00  0.0000000000000D+00  0.0000000000000D+00
   329  3.2800000000000D+00  0.0000000000000D+00  0.0000000000000D+00
   330  3.2900000000000D+00  0.0000000000000D+00  0.0000000000000D+00
   331  3.3000000000000D+00  0.0000000000000D+00  0.0000000000000D+00
   332  3.3100000000000D+00  0.0000000000000D+00  0.0000000000000D+00
   333  3.3200000000000D+00  0.0000000000000D+00  0.0000000000000D+00
   334  3.3300000000000D+00  0.0000000000000D+00  0.0000000000000D+00
   335  3.3400000000000D+00  0.0000000000000D+00  0.0000000000000D+00
   336  3.3500000000000D+00  0.0000000000000D+00  0.0000000000000D+00
   337  3.3600000000000D+00  0.0000000000000D+00  0.0000000000000D+00
   338  3.3700000000000D+00  0.0000000000000D+00  0.0000000000000D+00
   339  3.3800000000000D+00  0.0000000000000D+00  0.0000000000000D+00
   340  3.3900000000000D+00  0.0000000000000D+00  0.0000000000000D+00
   341  3.4000000000000D+00  0.0000000000000D+00  0.0000000000000D+00
   342  3.4100000000000D+00  0.0000000000000D+00  0.0000000000000D+00
   343  3.4200000000000D+00  0.0000000000000D+00  0.0000000000000D+00
   344  3.4300000000000D+00  0.0000000000000D+00  0.0000000000000D+00
   345  3.4400000000000D+00  0.0000000000000D+00  0.0000000000000D+00
   346  3.4500000000000D+00  0.0000000000000D+00  0.0000000000000D+00
   347  3.4600000000000D+00  0.0000000000000D+00  0.0000000000000D+00
   348  3.4700000000000D+00  0.0000000000000D+00  0.0000000000000D+00
   349  3.4800000000000D+00  0.0000000000000D+00  0.0000000000000D+00
   350  3.4900000000000D+00  0.0000000000000D+00  0.0000000000000D+00
   351  3.5000000000000D+00  0.0000000000000D+00  0.0000000000000D+00
   352  3.5100000000000D+00  0.0000000000000D+00  0.0000000000000D+00
   353  3.5200000000000D+00  0.0000000000000D+00  0.0000000000000D+00
   354  3.5300000000000D+00  0.0000000000000D+00  0.0000000000000D+00
   355  3.5400000000000D+00  0.0000000000000D+00  0.0000000000000D+00
   356  3.5500000000000D+00  0.0000000000000D+00  0.0000000000000D+00
   357  3.5600000000000D+00  0.0000000000000D+00  0.0000000000000D+00
   358  3.5700000000000D+00  0.0000000000000D+00  0.0000000000000D+00
   359  3.5800000000000D+00  0.0000000000000D+00  0.0000000000000D+00
   360  3.5900000000000D+00  0.0000000000000D+00  0.0000000000000D+00
   361  3.6000000000000D+00  0.0000000000000D+00  0.0000000000000D+00
   362  3.6100000000000D+00  0.0000000000000D+00  0.0000000000000D+00
   363  3.6200000000000D+00  0.0000000000000D+00  0.0000000000000D+00
   364  3.6300000000000D+00  0.0000000000000D+00  0.0000000000000D+00
   365  3.6400000000000D+00  0.0000000000000D+00  0.0000000000000D+00
   366  3.6500000000000D+00  0.0000000000000D+00  0.0000000000000D+00
   367  3.6600000000000D+00  0.0000000000000D+00  0.0000000000000D+00
   368  3.6700000000000D+00  0.0000000000000D+00  0.0000000000000D+00
   369  3.6800000000000D+00  0.0000000000000D+00  0.0000000000000D+00
   370  3.6900000000000D+00  0.0000000000000D+00  0.0000000000000D+00
   371  3.7000000000000D+00  0.0000000000000D+00  0.0000000000000D+00
   372  3.7100000000000D+00  0.0000000000000D+00  0.0000000000000D+00
   373  3.7200000000000D+00  0.0000000000000D+00  0.0000000000000D+00
   374  3.7300000000000D+00  0.0000000000000D+00  0.0000000000000D+00
   375  3.7400000000000D+00  0.0000000000000D+00  0.0000000000000D+00
   376  3.7500000000000D+00  0.0000000000000D+00  0.0000000000000D+00
   377  3.7600000000000D+00  0.0000000000000D+00  0.0000000000000D+00
   378  3.7700000000000D+00  0.0000000000000D+00  0.0000000000000D+00
   379  3.7800000000000D+00  0.0000000000000D+00  0.0000000000000D+00
   380  3.7900000000000D+00  0.0000000000000D+00  0.0000000000000D+00
   381  3.8000000000000D+00  0.0000000000000D+00  0.0000000000000D+00
   382  3.8100000000000D+00  0.0000000000000D+00  0.0000000000000D+00
   383  3.8200000000000D+00  0.0000000000000D+00  0.0000000000000D+00
   384  3.8300000000000D+00  0.0000000000000D+00  0.0000000000000D+00
   385  3.8400000000000D+00  0.0000000000000D+00  0.0000000000000D+00
   386  3.8500000000000D+00  0.0000000000000D+00  0.0000000000000D+00
   387  3.8600000000000D+00  0.0000000000000D+00  0.0000000000000D+00
   388  3.8700000000000D+00  0.0000000000000D+00  0.0000000000000D+00
   389  3.8800000000000D+00  0.0000000000000D+00  0.0000000000000D+00
   390  3.8900000000000D+00  0.0000000000000D+00  0.0000000000000D+00
   391  3.9000000000000D+00  0.0000000000000D+00  0.0000000000000D+00
   392  3.9100000000000D+00  0.0000000000000D+00  0.0000000000000D+00
   393  3.9200000000000D+00  0.0000000000000D+00  0.0000000000000D+00
   394  3.9300000000000D+00  0.0000000000000D+00  0.0000000000000D+00
   395  3.9400000000000D+00  0.0000000000000D+00  0.0000000000000D+00
   396  3.9500000000000D+00  0.0000000000000D+00  0.0000000000000D+00
   397  3.9600000000000D+00  0.0000000000000D+00  0.0000000000000D+00
   398  3.9700000000000D+00  0.0000000000000D+00  0.0000000000000D+00
   399  3.9800000000000D+00  0.0000000000000D+00  0.0000000000000D+00
   400  3.9900000000000D+00  0.0000000000000D+00  0.0000000000000D+00
   401  4.0000000000000D+00  0.0000000000000D+00  0.0000000000000D+00
   402  4.0100000000000D+00  0.0000000000000D+00  0.0000000000000D+00
   403  4.0200000000000D+00  0.0000000000000D+00  0.0000000000000D+00
   404  4.0300000000000D+00  0.0000000000000D+00  0.0000000000000D+00
   405  4.0400000000000D+00  0.0000000000000D+00  0.0000000000000D+00
   406  4.0500000000000D+00  0.0000000000000D+00  0.0000000000000D+00
   407  4.0600000000000D+00  0.0000000000000D+00  0.0000000000000D+00
   408  4.0700000000000D+00  0.0000000000000D+00  0.0000000000000D+00
   409  4.0800000000000D+00  0.0000000000000D+00  0.0000000000000D+00
   410  4.0900000000000D+00  0.0000000000000D+00  0.0000000000000D+00
   411  4.1000000000000D+00  0.0000000000000D+00  0.0000000000000D+00
   412  4.1100000000000D+00  0.0000000000000D+00  0.0000000000000D+00
   413  4.1200000000000D+00  0.0000000000000D+00  0.0000000000000D+00
   414  4.1300000000000D+00  0.0000000000000D+00  0.0000000000000D+00
   415  4.1400000000000D+00  0.0000000000000D+00  0.0000000000000D+00
   416  4.1500000000000D+00  0.0000000000000D+00  0.0000000000000D+00
   417  4.1600000000000D+00  0.0000000000000D+00  0.0000000000000D+00
   418  4.1700000000000D+00  0.0000000000000D+00  0.0000000000000D+00
   419  4.1800000000000D+00  0.0000000000000D+00  0.0000000000000D+00
   420  4.1900000000000D+00  0.0000000000000D+00  0.0000000000000D+00
   421  4.2000000000000D+00  0.0000000000000D+00  0.0000000000000D+00
   422  4.2100000000000D+00  0.0000000000000D+00  0.0000000000000D+00