Au    ONCVPSP-3.3.0  r_core=   1.45604   1.56407   1.56407   1.60183
     79.0000     19.0000      220408    zatom,zion,pspd
     8       2   3     4   500     0    pspcod,pspxc,lmax,lloc,mmax,r2well
  4.99000000  0.00000000  0.00000000    rchrg fchrg qchrg
     2     2     2     1     0    nproj
     1     1           extension_switch
   0                         9.4139917278393D+00 -1.9913670160172D-01
     1  0.0000000000000D+00 -5.3223025986426D-10 -5.1278246093744D-09
     2  1.0000000000000D-02  8.1132889261093D-02  4.3257069436372D-02
     3  2.0000000000000D-02  1.6204305148091D-01  8.6076313320368D-02
     4  3.0000000000000D-02  2.4250882020766D-01  1.2802591682651D-01
     5  4.0000000000000D-02  3.2231064259058D-01  1.6868597870070D-01
     6  5.0000000000000D-02  4.0123211562147D-01  2.0765421834481D-01
     7  6.0000000000000D-02  4.7906099632808D-01  2.4455140620160D-01
     8  7.0000000000000D-02  5.5559017706742D-01  2.7902644051209D-01
     9  8.0000000000000D-02  6.3061861759969D-01  3.1076099864529D-01
    10  9.0000000000000D-02  7.0395222624570D-01  3.3947369743473D-01
    11  1.0000000000000D-01  7.7540468313493D-01  3.6492370419559D-01
    12  1.1000000000000D-01  8.4479819932621D-01  3.8691374822497D-01
    13  1.2000000000000D-01  9.1196420641828D-01  4.0529249147669D-01
    14  1.3000000000000D-01  9.7674397215152D-01  4.1995622661274D-01
    15  1.4000000000000D-01  1.0389891384225D+00  4.3084988061615D-01
    16  1.5000000000000D-01  1.0985621790778D+00  4.3796731245358D-01
    17  1.6000000000000D-01  1.1553367758089D+00  4.4135090373954D-01
    18  1.7000000000000D-01  1.2091981114263D+00  4.4109045182045D-01
    19  1.8000000000000D-01  1.2600430807313D+00  4.3732138500668D-01
    20  1.9000000000000D-01  1.3077804201209D+00  4.3022232967862D-01
    21  2.0000000000000D-01  1.3523307579390D+00  4.2001206853034D-01
    22  2.1000000000000D-01  1.3936265884205D+00  4.0694593814816D-01
    23  2.2000000000000D-01  1.4316121728443D+00  3.9131172232004D-01
    24  2.3000000000000D-01  1.4662433722204D+00  3.7342510481560D-01
    25  2.4000000000000D-01  1.4974874164649D+00  3.5362475175524D-01
    26  2.5000000000000D-01  1.5253226155638D+00  3.3226709901279D-01
    27  2.6000000000000D-01  1.5497380186892D+00  3.0972092428754D-01
    28  2.7000000000000D-01  1.5707330275954D+00  2.8636178648329D-01
    29  2.8000000000000D-01  1.5883169708962D+00  2.6256641680017D-01
    30  2.9000000000000D-01  1.6025086459976D+00  2.3870714645602D-01
    31  3.0000000000000D-01  1.6133358355358D+00  2.1514645520504D-01
    32  3.1000000000000D-01  1.6208348051494D+00  1.9223172282253D-01
    33  3.2000000000000D-01  1.6250497892987D+00  1.7029026251083D-01
    34  3.3000000000000D-01  1.6260324716362D+00  1.4962471079876D-01
    35  3.4000000000000D-01  1.6238414661404D+00  1.3050884302403D-01
    36  3.5000000000000D-01  1.6185418048474D+00  1.1318387698355D-01
    37  3.6000000000000D-01  1.6102044375689D+00  9.7855319909156D-02
    38  3.7000000000000D-01  1.5989057484679D+00  8.4690405683277D-02
    39  3.8000000000000D-01  1.5847270937938D+00  7.3816160271395D-02
    40  3.9000000000000D-01  1.5677543644556D+00  6.5318123846006D-02
    41  4.0000000000000D-01  1.5480775764591D+00  5.9239748149277D-02
    42  4.1000000000000D-01  1.5257904915421D+00  5.5582477429988D-02
    43  4.2000000000000D-01  1.5009902696460D+00  5.4306510945544D-02
    44  4.3000000000000D-01  1.4737771541480D+00  5.5332234689145D-02
    45  4.4000000000000D-01  1.4442541900777D+00  5.8542299835902D-02
    46  4.5000000000000D-01  1.4125269748522D+00  6.3784315546248D-02
    47  4.6000000000000D-01  1.3787034403994D+00  7.0874114363972D-02
    48  4.7000000000000D-01  1.3428936649114D+00  7.9599539633573D-02
    49  4.8000000000000D-01  1.3052097118871D+00  8.9724696268857D-02
    50  4.9000000000000D-01  1.2657654935908D+00  1.0099459894687D-01
    51  5.0000000000000D-01  1.2246766555837D+00  1.1314014548545D-01
    52  5.1000000000000D-01  1.1820604785822D+00  1.2588333788704D-01
    53  5.2000000000000D-01  1.1380357935686D+00  1.3894266936540D-01
    54  5.3000000000000D-01  1.0927229058257D+00  1.5203859269173D-01
    55  5.4000000000000D-01  1.0462435233989D+00  1.6489898344157D-01
    56  5.5000000000000D-01  9.9872068540086D-01  1.7726451122556D-01
    57  5.6000000000000D-01  9.5027868557557D-01  1.8889383276647D-01
    58  5.7000000000000D-01  9.0104298661726D-01  1.9956852272324D-01
    59  5.8000000000000D-01  8.5114012091214D-01  2.0909766146154D-01
    60  5.9000000000000D-01  8.0069757361487D-01  2.1732200345431D-01
    61  6.0000000000000D-01  7.4984364429973D-01  2.2411765566273D-01
    62  6.1000000000000D-01  6.9870728382285D-01  2.2939920195563D-01
    63  6.2000000000000D-01  6.4741790349738D-01  2.3312221735710D-01
    64  6.3000000000000D-01  5.9610515420774D-01  2.3528512452633D-01
    65  6.4000000000000D-01  5.4489867366377D-01  2.3593035422447D-01
    66  6.5000000000000D-01  4.9392780061726D-01  2.3514478159938D-01
    67  6.6000000000000D-01  4.4332125551507D-01  2.3305942062875D-01
    68  6.7000000000000D-01  3.9320678774007D-01  2.2984836996493D-01
    69  6.8000000000000D-01  3.4371079028435D-01  2.2572701457785D-01
    70  6.9000000000000D-01  2.9495788339296D-01  2.2094949876035D-01
    71  7.0000000000000D-01  2.4707046940223D-01  2.1580549712508D-01
    72  7.1000000000000D-01  2.0016826166812D-01  2.1061632108460D-01
    73  7.2000000000000D-01  1.5436779111968D-01  2.0573040870983D-01
    74  7.3000000000000D-01  1.0978189457380D-01  2.0151825571058D-01
    75  7.4000000000000D-01  6.6519189501725D-02  1.9836685444209D-01
    76  7.5000000000000D-01  2.4683540430481D-02  1.9667371610989D-01
    77  7.6000000000000D-01 -1.5626477406415D-02  1.9684055870120D-01
    78  7.7000000000000D-01 -5.4318111202026D-02  1.9926674938108D-01
    79  7.8000000000000D-01 -9.1304954251788D-02  2.0434259513507D-01
    80  7.9000000000000D-01 -1.2650745374395D-01  2.1244257920073D-01
    81  8.0000000000000D-01 -1.5985339614059D-01  2.2391864324094D-01
    82  8.1000000000000D-01 -1.9127836362307D-01  2.3909361622118D-01
    83  8.2000000000000D-01 -2.2072615517053D-01  2.5825489052922D-01
    84  8.3000000000000D-01 -2.4814916603050D-01  2.8164844400242D-01
    85  8.4000000000000D-01 -2.7350871962837D-01  3.0947330321370D-01
    86  8.5000000000000D-01 -2.9677534634309D-01  3.4187653863856D-01
    87  8.6000000000000D-01 -3.1792900404742D-01  3.7894887622770D-01
    88  8.7000000000000D-01 -3.3695923586815D-01  4.2072100251068D-01
    89  8.8000000000000D-01 -3.5386526125684D-01  4.6716063174190D-01
    90  8.9000000000000D-01 -3.6865599716957D-01  5.1817039387400D-01
    91  9.0000000000000D-01 -3.8135000692427D-01  5.7358659142797D-01
    92  9.1000000000000D-01 -3.9197537512878D-01  6.3317886176186D-01
    93  9.2000000000000D-01 -4.0056950793903D-01  6.9665076897085D-01
    94  9.3000000000000D-01 -4.0717885880560D-01  7.6364133684604D-01
    95  9.4000000000000D-01 -4.1185858078424D-01  8.3372752115114D-01
    96  9.5000000000000D-01 -4.1467210741053D-01  9.0642760612694D-01
    97  9.6000000000000D-01 -4.1569066505723D-01  9.8120549679105D-01
    98  9.7000000000000D-01 -4.1499272059139D-01  1.0574758654674D+00
    99  9.8000000000000D-01 -4.1266336901865D-01  1.1346100981673D+00
   100  9.9000000000000D-01 -4.0879366662004D-01  1.2119429743304D+00
   101  1.0000000000000D+00 -4.0347991584661D-01  1.2887800020774D+00
   102  1.0100000000000D+00 -3.9682290894836D-01  1.3644053204027D+00
   103  1.0200000000000D+00 -3.8892713791285D-01  1.4380900705892D+00
   104  1.0300000000000D+00 -3.7989997882056D-01  1.5091011308850D+00
   105  1.0400000000000D+00 -3.6985085914851D-01  1.5767101017430D+00
   106  1.0500000000000D+00 -3.5889041686812D-01  1.6402024237134D+00
   107  1.0600000000000D+00 -3.4712966038664D-01  1.6988865065108D+00
   108  1.0700000000000D+00 -3.3467913847660D-01  1.7521027456102D+00
   109  1.0800000000000D+00 -3.2164812928927D-01  1.7992323027442D+00
   110  1.0900000000000D+00 -3.0814385739340D-01  1.8397055281312D+00
   111  1.1000000000000D+00 -2.9427074747034D-01  1.8730099059668D+00
   112  1.1100000000000D+00 -2.8012972296744D-01  1.8986974087899D+00
   113  1.1200000000000D+00 -2.6581755738979D-01  1.9163911544224D+00
   114  1.1300000000000D+00 -2.5142628535709D-01  1.9257912665512D+00
   115  1.1400000000000D+00 -2.3704267966943D-01  1.9266798519260D+00
   116  1.1500000000000D+00 -2.2274780007866D-01  1.9189250145573D+00
   117  1.1600000000000D+00 -2.0861661818911D-01  1.9024838447501D+00
   118  1.1700000000000D+00 -1.9471772212652D-01  1.8774043316874D+00
   119  1.1800000000000D+00 -1.8111310340425D-01  1.8438261650675D+00
   120  1.1900000000000D+00 -1.6785802762011D-01  1.8019804023575D+00
   121  1.2000000000000D+00 -1.5500098902785D-01  1.7521880004737D+00
   122  1.2100000000000D+00 -1.4258374803517D-01  1.6948572246809D+00
   123  1.2200000000000D+00 -1.3064144981091D-01  1.6304799597006D+00
   124  1.2300000000000D+00 -1.1920282062028D-01  1.5596269700931D+00
   125  1.2400000000000D+00 -1.0829043743481D-01  1.4829421721942D+00
   126  1.2500000000000D+00 -9.7921065567376D-02  1.4011359911782D+00
   127  1.2600000000000D+00 -8.8106057941877D-02  1.3149778930051D+00
   128  1.2700000000000D+00 -7.8851808352082D-02  1.2252881989260D+00
   129  1.2800000000000D+00 -7.0160250712348D-02  1.1329292952489D+00
   130  1.2900000000000D+00 -6.2029395382476D-02  1.0387963641929D+00
   131  1.3000000000000D+00 -5.4453892696452D-02  9.4380777534790D-01
   132  1.3100000000000D+00 -4.7425613889427D-02  8.4889527633287D-01
   133  1.3200000000000D+00 -4.0934238801695D-02  7.5499413295353D-01
   134  1.3300000000000D+00 -3.4967839651455D-02  6.6303337048616D-01
   135  1.3400000000000D+00 -2.9513450219365D-02  5.7392626695380D-01
   136  1.3500000000000D+00 -2.4557609410692D-02  4.8856125476252D-01
   137  1.3600000000000D+00 -2.0086867743629D-02  4.0779340751328D-01
   138  1.3700000000000D+00 -1.6088255305161D-02  3.3243643745140D-01
   139  1.3800000000000D+00 -1.2549662845659D-02  2.6325625885890D-01
   140  1.3900000000000D+00 -9.4602772708446D-03  2.0096276565543D-01
   141  1.4000000000000D+00 -6.8106706010465D-03  1.4620897700844D-01
   142  1.4100000000000D+00 -4.5940875369447D-03  9.9611201335505D-02
   143  1.4200000000000D+00 -2.8027402632322D-03  6.1610624339391D-02
   144  1.4300000000000D+00 -1.4292499275058D-03  3.2434437591731D-02
   145  1.4400000000000D+00 -5.0480482812570D-04  1.3054543389206D-02
   146  1.4500000000000D+00 -3.0138025684172D-05  3.3774346719611D-03
   147  1.4600000000000D+00  9.1829354828623D-05  1.4428064420837D-04
   148  1.4700000000000D+00  2.8858517270711D-05 -1.3134483464159D-04
   149  1.4800000000000D+00 -1.8376672172198D-05  1.1272883398641D-04
   150  1.4900000000000D+00 -3.3025920247832D-06  2.3319961970027D-05
   151  1.5000000000000D+00  3.7594775549235D-06 -1.7469625575359D-05
   152  1.5100000000000D+00 -4.1449903013725D-08 -4.8770140143966D-07
   153  1.5200000000000D+00 -2.0489835076394D-07 -2.4108431034726D-06
   154  1.5300000000000D+00  0.0000000000000D+00  0.0000000000000D+00
   155  1.5400000000000D+00  0.0000000000000D+00  0.0000000000000D+00
   156  1.5500000000000D+00  0.0000000000000D+00  0.0000000000000D+00
   157  1.5600000000000D+00  0.0000000000000D+00  0.0000000000000D+00
   158  1.5700000000000D+00  0.0000000000000D+00  0.0000000000000D+00
   159  1.5800000000000D+00  0.0000000000000D+00  0.0000000000000D+00
   160  1.5900000000000D+00  0.0000000000000D+00  0.0000000000000D+00
   161  1.6000000000000D+00  0.0000000000000D+00  0.0000000000000D+00
   162  1.6100000000000D+00  0.0000000000000D+00  0.0000000000000D+00
   163  1.6200000000000D+00  0.0000000000000D+00  0.0000000000000D+00
   164  1.6300000000000D+00  0.0000000000000D+00  0.0000000000000D+00
   165  1.6400000000000D+00  0.0000000000000D+00  0.0000000000000D+00
   166  1.6500000000000D+00  0.0000000000000D+00  0.0000000000000D+00
   167  1.6600000000000D+00  0.0000000000000D+00  0.0000000000000D+00
   168  1.6700000000000D+00  0.0000000000000D+00  0.0000000000000D+00
   169  1.6800000000000D+00  0.0000000000000D+00  0.0000000000000D+00
   170  1.6900000000000D+00  0.0000000000000D+00  0.0000000000000D+00
   171  1.7000000000000D+00  0.0000000000000D+00  0.0000000000000D+00
   172  1.7100000000000D+00  0.0000000000000D+00  0.0000000000000D+00
   173  1.7200000000000D+00  0.0000000000000D+00  0.0000000000000D+00
   174  1.7300000000000D+00  0.0000000000000D+00  0.0000000000000D+00
   175  1.7400000000000D+00  0.0000000000000D+00  0.0000000000000D+00
   176  1.7500000000000D+00  0.0000000000000D+00  0.0000000000000D+00
   177  1.7600000000000D+00  0.0000000000000D+00  0.0000000000000D+00
   178  1.7700000000000D+00  0.0000000000000D+00  0.0000000000000D+00
   179  1.7800000000000D+00  0.0000000000000D+00  0.0000000000000D+00
   180  1.7900000000000D+00  0.0000000000000D+00  0.0000000000000D+00
   181  1.8000000000000D+00  0.0000000000000D+00  0.0000000000000D+00
   182  1.8100000000000D+00  0.0000000000000D+00  0.0000000000000D+00
   183  1.8200000000000D+00  0.0000000000000D+00  0.0000000000000D+00
   184  1.8300000000000D+00  0.0000000000000D+00  0.0000000000000D+00
   185  1.8400000000000D+00  0.0000000000000D+00  0.0000000000000D+00
   186  1.8500000000000D+00  0.0000000000000D+00  0.0000000000000D+00
   187  1.8600000000000D+00  0.0000000000000D+00  0.0000000000000D+00
   188  1.8700000000000D+00  0.0000000000000D+00  0.0000000000000D+00
   189  1.8800000000000D+00  0.0000000000000D+00  0.0000000000000D+00
   190  1.8900000000000D+00  0.0000000000000D+00  0.0000000000000D+00
   191  1.9000000000000D+00  0.0000000000000D+00  0.0000000000000D+00
   192  1.9100000000000D+00  0.0000000000000D+00  0.0000000000000D+00
   193  1.9200000000000D+00  0.0000000000000D+00  0.0000000000000D+00
   194  1.9300000000000D+00  0.0000000000000D+00  0.0000000000000D+00
   195  1.9400000000000D+00  0.0000000000000D+00  0.0000000000000D+00
   196  1.9500000000000D+00  0.0000000000000D+00  0.0000000000000D+00
   197  1.9600000000000D+00  0.0000000000000D+00  0.0000000000000D+00
   198  1.9700000000000D+00  0.0000000000000D+00  0.0000000000000D+00
   199  1.9800000000000D+00  0.0000000000000D+00  0.0000000000000D+00
   200  1.9900000000000D+00  0.0000000000000D+00  0.0000000000000D+00
   201  2.0000000000000D+00  0.0000000000000D+00  0.0000000000000D+00
   202  2.0100000000000D+00  0.0000000000000D+00  0.0000000000000D+00
   203  2.0200000000000D+00  0.0000000000000D+00  0.0000000000000D+00
   204  2.0300000000000D+00  0.0000000000000D+00  0.0000000000000D+00
   205  2.0400000000000D+00  0.0000000000000D+00  0.0000000000000D+00
   206  2.0500000000000D+00  0.0000000000000D+00  0.0000000000000D+00
   207  2.0600000000000D+00  0.0000000000000D+00  0.0000000000000D+00
   208  2.0700000000000D+00  0.0000000000000D+00  0.0000000000000D+00
   209  2.0800000000000D+00  0.0000000000000D+00  0.0000000000000D+00
   210  2.0900000000000D+00  0.0000000000000D+00  0.0000000000000D+00
   211  2.1000000000000D+00  0.0000000000000D+00  0.0000000000000D+00
   212  2.1100000000000D+00  0.0000000000000D+00  0.0000000000000D+00
   213  2.1200000000000D+00  0.0000000000000D+00  0.0000000000000D+00
   214  2.1300000000000D+00  0.0000000000000D+00  0.0000000000000D+00
   215  2.1400000000000D+00  0.0000000000000D+00  0.0000000000000D+00
   216  2.1500000000000D+00  0.0000000000000D+00  0.0000000000000D+00
   217  2.1600000000000D+00  0.0000000000000D+00  0.0000000000000D+00
   218  2.1700000000000D+00  0.0000000000000D+00  0.0000000000000D+00
   219  2.1800000000000D+00  0.0000000000000D+00  0.0000000000000D+00
   220  2.1900000000000D+00  0.0000000000000D+00  0.0000000000000D+00
   221  2.2000000000000D+00  0.0000000000000D+00  0.0000000000000D+00
   222  2.2100000000000D+00  0.0000000000000D+00  0.0000000000000D+00
   223  2.2200000000000D+00  0.0000000000000D+00  0.0000000000000D+00
   224  2.2300000000000D+00  0.0000000000000D+00  0.0000000000000D+00
   225  2.2400000000000D+00  0.0000000000000D+00  0.0000000000000D+00
   226  2.2500000000000D+00  0.0000000000000D+00  0.0000000000000D+00
   227  2.2600000000000D+00  0.0000000000000D+00  0.0000000000000D+00
   228  2.2700000000000D+00  0.0000000000000D+00  0.0000000000000D+00
   229  2.2800000000000D+00  0.0000000000000D+00  0.0000000000000D+00
   230  2.2900000000000D+00  0.0000000000000D+00  0.0000000000000D+00
   231  2.3000000000000D+00  0.0000000000000D+00  0.0000000000000D+00
   232  2.3100000000000D+00  0.0000000000000D+00  0.0000000000000D+00
   233  2.3200000000000D+00  0.0000000000000D+00  0.0000000000000D+00
   234  2.3300000000000D+00  0.0000000000000D+00  0.0000000000000D+00
   235  2.3400000000000D+00  0.0000000000000D+00  0.0000000000000D+00
   236  2.3500000000000D+00  0.0000000000000D+00  0.0000000000000D+00
   237  2.3600000000000D+00  0.0000000000000D+00  0.0000000000000D+00
   238  2.3700000000000D+00  0.0000000000000D+00  0.0000000000000D+00
   239  2.3800000000000D+00  0.0000000000000D+00  0.0000000000000D+00
   240  2.3900000000000D+00  0.0000000000000D+00  0.0000000000000D+00
   241  2.4000000000000D+00  0.0000000000000D+00  0.0000000000000D+00
   242  2.4100000000000D+00  0.0000000000000D+00  0.0000000000000D+00
   243  2.4200000000000D+00  0.0000000000000D+00  0.0000000000000D+00
   244  2.4300000000000D+00  0.0000000000000D+00  0.0000000000000D+00
   245  2.4400000000000D+00  0.0000000000000D+00  0.0000000000000D+00
   246  2.4500000000000D+00  0.0000000000000D+00  0.0000000000000D+00
   247  2.4600000000000D+00  0.0000000000000D+00  0.0000000000000D+00
   248  2.4700000000000D+00  0.0000000000000D+00  0.0000000000000D+00
   249  2.4800000000000D+00  0.0000000000000D+00  0.0000000000000D+00
   250  2.4900000000000D+00  0.0000000000000D+00  0.0000000000000D+00
   251  2.5000000000000D+00  0.0000000000000D+00  0.0000000000000D+00
   252  2.5100000000000D+00  0.0000000000000D+00  0.0000000000000D+00
   253  2.5200000000000D+00  0.0000000000000D+00  0.0000000000000D+00
   254  2.5300000000000D+00  0.0000000000000D+00  0.0000000000000D+00
   255  2.5400000000000D+00  0.0000000000000D+00  0.0000000000000D+00
   256  2.5500000000000D+00  0.0000000000000D+00  0.0000000000000D+00
   257  2.5600000000000D+00  0.0000000000000D+00  0.0000000000000D+00
   258  2.5700000000000D+00  0.0000000000000D+00  0.0000000000000D+00
   259  2.5800000000000D+00  0.0000000000000D+00  0.0000000000000D+00
   260  2.5900000000000D+00  0.0000000000000D+00  0.0000000000000D+00
   261  2.6000000000000D+00  0.0000000000000D+00  0.0000000000000D+00
   262  2.6100000000000D+00  0.0000000000000D+00  0.0000000000000D+00
   263  2.6200000000000D+00  0.0000000000000D+00  0.0000000000000D+00
   264  2.6300000000000D+00  0.0000000000000D+00  0.0000000000000D+00
   265  2.6400000000000D+00  0.0000000000000D+00  0.0000000000000D+00
   266  2.6500000000000D+00  0.0000000000000D+00  0.0000000000000D+00
   267  2.6600000000000D+00  0.0000000000000D+00  0.0000000000000D+00
   268  2.6700000000000D+00  0.0000000000000D+00  0.0000000000000D+00
   269  2.6800000000000D+00  0.0000000000000D+00  0.0000000000000D+00
   270  2.6900000000000D+00  0.0000000000000D+00  0.0000000000000D+00
   271  2.7000000000000D+00  0.0000000000000D+00  0.0000000000000D+00
   272  2.7100000000000D+00  0.0000000000000D+00  0.0000000000000D+00
   273  2.7200000000000D+00  0.0000000000000D+00  0.0000000000000D+00
   274  2.7300000000000D+00  0.0000000000000D+00  0.0000000000000D+00
   275  2.7400000000000D+00  0.0000000000000D+00  0.0000000000000D+00
   276  2.7500000000000D+00  0.0000000000000D+00  0.0000000000000D+00
   277  2.7600000000000D+00  0.0000000000000D+00  0.0000000000000D+00
   278  2.7700000000000D+00  0.0000000000000D+00  0.0000000000000D+00
   279  2.7800000000000D+00  0.0000000000000D+00  0.0000000000000D+00
   280  2.7900000000000D+00  0.0000000000000D+00  0.0000000000000D+00
   281  2.8000000000000D+00  0.0000000000000D+00  0.0000000000000D+00
   282  2.8100000000000D+00  0.0000000000000D+00  0.0000000000000D+00
   283  2.8200000000000D+00  0.0000000000000D+00  0.0000000000000D+00
   284  2.8300000000000D+00  0.0000000000000D+00  0.0000000000000D+00
   285  2.8400000000000D+00  0.0000000000000D+00  0.0000000000000D+00
   286  2.8500000000000D+00  0.0000000000000D+00  0.0000000000000D+00
   287  2.8600000000000D+00  0.0000000000000D+00  0.0000000000000D+00
   288  2.8700000000000D+00  0.0000000000000D+00  0.0000000000000D+00
   289  2.8800000000000D+00  0.0000000000000D+00  0.0000000000000D+00
   290  2.8900000000000D+00  0.0000000000000D+00  0.0000000000000D+00
   291  2.9000000000000D+00  0.0000000000000D+00  0.0000000000000D+00
   292  2.9100000000000D+00  0.0000000000000D+00  0.0000000000000D+00
   293  2.9200000000000D+00  0.0000000000000D+00  0.0000000000000D+00
   294  2.9300000000000D+00  0.0000000000000D+00  0.0000000000000D+00
   295  2.9400000000000D+00  0.0000000000000D+00  0.0000000000000D+00
   296  2.9500000000000D+00  0.0000000000000D+00  0.0000000000000D+00
   297  2.9600000000000D+00  0.0000000000000D+00  0.0000000000000D+00
   298  2.9700000000000D+00  0.0000000000000D+00  0.0000000000000D+00
   299  2.9800000000000D+00  0.0000000000000D+00  0.0000000000000D+00
   300  2.9900000000000D+00  0.0000000000000D+00  0.0000000000000D+00
   301  3.0000000000000D+00  0.0000000000000D+00  0.0000000000000D+00
   302  3.0100000000000D+00  0.0000000000000D+00  0.0000000000000D+00
   303  3.0200000000000D+00  0.0000000000000D+00  0.0000000000000D+00
   304  3.0300000000000D+00  0.0000000000000D+00  0.0000000000000D+00
   305  3.0400000000000D+00  0.0000000000000D+00  0.0000000000000D+00
   306  3.0500000000000D+00  0.0000000000000D+00  0.0000000000000D+00
   307  3.0600000000000D+00  0.0000000000000D+00  0.0000000000000D+00
   308  3.0700000000000D+00  0.0000000000000D+00  0.0000000000000D+00
   309  3.0800000000000D+00  0.0000000000000D+00  0.0000000000000D+00
   310  3.0900000000000D+00  0.0000000000000D+00  0.0000000000000D+00
   311  3.1000000000000D+00  0.0000000000000D+00  0.0000000000000D+00
   312  3.1100000000000D+00  0.0000000000000D+00  0.0000000000000D+00
   313  3.1200000000000D+00  0.0000000000000D+00  0.0000000000000D+00
   314  3.1300000000000D+00  0.0000000000000D+00  0.0000000000000D+00
   315  3.1400000000000D+00  0.0000000000000D+00  0.0000000000000D+00
   316  3.1500000000000D+00  0.0000000000000D+00  0.0000000000000D+00
   317  3.1600000000000D+00  0.0000000000000D+00  0.0000000000000D+00
   318  3.1700000000000D+00  0.0000000000000D+00  0.0000000000000D+00
   319  3.1800000000000D+00  0.0000000000000D+00  0.0000000000000D+00
   320  3.1900000000000D+00  0.0000000000000D+00  0.0000000000000D+00
   321  3.2000000000000D+00  0.0000000000000D+00  0.0000000000000D+00
   322  3.2100000000000D+00  0.0000000000000D+00  0.0000000000000D+00
   323  3.2200000000000D+00  0.0000000000000D+00  0.0000000000000D+00
   324  3.2300000000000D+00  0.0000000000000D+00  0.0000000000000D+00
   325  3.2400000000000D+00  0.0000000000000D+00  0.0000000000000D+00
   326  3.2500000000000D+00  0.0000000000000D+00  0.0000000000000D+00
   327  3.2600000000000D+00  0.0000000000000D+00  0.0000000000000D+00
   328  3.2700000000000D+00  0.0000000000000D+00  0.0000000000000D+00
   329  3.2800000000000D+00  0.0000000000000D+00  0.0000000000000D+00
   330  3.2900000000000D+00  0.0000000000000D+00  0.0000000000000D+00
   331  3.3000000000000D+00  0.0000000000000D+00  0.0000000000000D+00
   332  3.3100000000000D+00  0.0000000000000D+00  0.0000000000000D+00
   333  3.3200000000000D+00  0.0000000000000D+00  0.0000000000000D+00
   334  3.3300000000000D+00  0.0000000000000D+00  0.0000000000000D+00
   335  3.3400000000000D+00  0.0000000000000D+00  0.0000000000000D+00
   336  3.3500000000000D+00  0.0000000000000D+00  0.0000000000000D+00
   337  3.3600000000000D+00  0.0000000000000D+00  0.0000000000000D+00
   338  3.3700000000000D+00  0.0000000000000D+00  0.0000000000000D+00
   339  3.3800000000000D+00  0.0000000000000D+00  0.0000000000000D+00
   340  3.3900000000000D+00  0.0000000000000D+00  0.0000000000000D+00
   341  3.4000000000000D+00  0.0000000000000D+00  0.0000000000000D+00
   342  3.4100000000000D+00  0.0000000000000D+00  0.0000000000000D+00
   343  3.4200000000000D+00  0.0000000000000D+00  0.0000000000000D+00
   344  3.4300000000000D+00  0.0000000000000D+00  0.0000000000000D+00
   345  3.4400000000000D+00  0.0000000000000D+00  0.0000000000000D+00
   346  3.4500000000000D+00  0.0000000000000D+00  0.0000000000000D+00
   347  3.4600000000000D+00  0.0000000000000D+00  0.0000000000000D+00
   348  3.4700000000000D+00  0.0000000000000D+00  0.0000000000000D+00
   349  3.4800000000000D+00  0.0000000000000D+00  0.0000000000000D+00
   350  3.4900000000000D+00  0.0000000000000D+00  0.0000000000000D+00
   351  3.5000000000000D+00  0.0000000000000D+00  0.0000000000000D+00
   352  3.5100000000000D+00  0.0000000000000D+00  0.0000000000000D+00
   353  3.5200000000000D+00  0.0000000000000D+00  0.0000000000000D+00
   354  3.5300000000000D+00  0.0000000000000D+00  0.0000000000000D+00
   355  3.5400000000000D+00  0.0000000000000D+00  0.0000000000000D+00
   356  3.5500000000000D+00  0.0000000000000D+00  0.0000000000000D+00
   357  3.5600000000000D+00  0.0000000000000D+00  0.0000000000000D+00
   358  3.5700000000000D+00  0.0000000000000D+00  0.0000000000000D+00
   359  3.5800000000000D+00  0.0000000000000D+00  0.0000000000000D+00
   360  3.5900000000000D+00  0.0000000000000D+00  0.0000000000000D+00
   361  3.6000000000000D+00  0.0000000000000D+00  0.0000000000000D+00
   362  3.6100000000000D+00  0.0000000000000D+00  0.0000000000000D+00
   363  3.6200000000000D+00  0.0000000000000D+00  0.0000000000000D+00
   364  3.6300000000000D+00  0.0000000000000D+00  0.0000000000000D+00
   365  3.6400000000000D+00  0.0000000000000D+00  0.0000000000000D+00
   366  3.6500000000000D+00  0.0000000000000D+00  0.0000000000000D+00
   367  3.6600000000000D+00  0.0000000000000D+00  0.0000000000000D+00
   368  3.6700000000000D+00  0.0000000000000D+00  0.0000000000000D+00
   369  3.6800000000000D+00  0.0000000000000D+00  0.0000000000000D+00
   370  3.6900000000000D+00  0.0000000000000D+00  0.0000000000000D+00
   371  3.7000000000000D+00  0.0000000000000D+00  0.0000000000000D+00
   372  3.7100000000000D+00  0.0000000000000D+00  0.0000000000000D+00
   373  3.7200000000000D+00  0.0000000000000D+00  0.0000000000000D+00
   374  3.7300000000000D+00  0.0000000000000D+00  0.0000000000000D+00
   375  3.7400000000000D+00  0.0000000000000D+00  0.0000000000000D+00
   376  3.7500000000000D+00  0.0000000000000D+00  0.0000000000000D+00
   377  3.7600000000000D+00  0.0000000000000D+00  0.0000000000000D+00
   378  3.7700000000000D+00  0.0000000000000D+00  0.0000000000000D+00
   379  3.7800000000000D+00  0.0000000000000D+00  0.0000000000000D+00
   380  3.7900000000000D+00  0.0000000000000D+00  0.0000000000000D+00
   381  3.8000000000000D+00  0.0000000000000D+00  0.0000000000000D+00
   382  3.8100000000000D+00  0.0000000000000D+00  0.0000000000000D+00
   383  3.8200000000000D+00  0.0000000000000D+00  0.0000000000000D+00
   384  3.8300000000000D+00  0.0000000000000D+00  0.0000000000000D+00
   385  3.8400000000000D+00  0.0000000000000D+00  0.0000000000000D+00
   386  3.8500000000000D+00  0.0000000000000D+00  0.0000000000000D+00
   387  3.8600000000000D+00  0.0000000000000D+00  0.0000000000000D+00
   388  3.8700000000000D+00  0.0000000000000D+00  0.0000000000000D+00
   389  3.8800000000000D+00  0.0000000000000D+00  0.0000000000000D+00
   390  3.8900000000000D+00  0.0000000000000D+00  0.0000000000000D+00
   391  3.9000000000000D+00  0.0000000000000D+00  0.0000000000000D+00
   392  3.9100000000000D+00  0.0000000000000D+00  0.0000000000000D+00
   393  3.9200000000000D+00  0.0000000000000D+00  0.0000000000000D+00
   394  3.9300000000000D+00  0.0000000000000D+00  0.0000000000000D+00
   395  3.9400000000000D+00  0.0000000000000D+00  0.0000000000000D+00
   396  3.9500000000000D+00  0.0000000000000D+00  0.0000000000000D+00
   397  3.9600000000000D+00  0.0000000000000D+00  0.0000000000000D+00
   398  3.9700000000000D+00  0.0000000000000D+00  0.0000000000000D+00
   399  3.9800000000000D+00  0.0000000000000D+00  0.0000000000000D+00
   400  3.9900000000000D+00  0.0000000000000D+00  0.0000000000000D+00
   401  4.0000000000000D+00  0.0000000000000D+00  0.0000000000000D+00
   402  4.0100000000000D+00  0.0000000000000D+00  0.0000000000000D+00
   403  4.0200000000000D+00  0.0000000000000D+00  0.0000000000000D+00
   404  4.0300000000000D+00  0.0000000000000D+00  0.0000000000000D+00
   405  4.0400000000000D+00  0.0000000000000D+00  0.0000000000000D+00
   406  4.0500000000000D+00  0.0000000000000D+00  0.0000000000000D+00
   407  4.0600000000000D+00  0.0000000000000D+00  0.0000000000000D+00
   408  4.0700000000000D+00  0.0000000000000D+00  0.0000000000000D+00
   409  4.0800000000000D+00  0.0000000000000D+00  0.0000000000000D+00
   410  4.0900000000000D+00  0.0000000000000D+00  0.0000000000000D+00
   411  4.1000000000000D+00  0.0000000000000D+00  0.0000000000000D+00
   412  4.1100000000000D+00  0.0000000000000D+00  0.0000000000000D+00
   413  4.1200000000000D+00  0.0000000000000D+00  0.0000000000000D+00
   414  4.1300000000000D+00  0.0000000000000D+00  0.0000000000000D+00
   415  4.1400000000000D+00  0.0000000000000D+00  0.0000000000000D+00
   416  4.1500000000000D+00  0.0000000000000D+00  0.0000000000000D+00
   417  4.1600000000000D+00  0.0000000000000D+00  0.0000000000000D+00
   418  4.1700000000000D+00  0.0000000000000D+00  0.0000000000000D+00
   419  4.1800000000000D+00  0.0000000000000D+00  0.0000000000000D+00
   420  4.1900000000000D+00  0.0000000000000D+00  0.0000000000000D+00
   421  4.2000000000000D+00  0.0000000000000D+00  0.0000000000000D+00
   422  4.2100000000000D+00  0.0000000000000D+00  0.0000000000000D+00