P     ONCVPSP-3.3.0  r_core=   1.40954   1.60717   1.81079
     15.0000     13.0000      220408    zatom,zion,pspd
     8       2   2     4   600     0    pspcod,pspxc,lmax,lloc,mmax,r2well
  5.99000000  0.00000000  0.00000000    rchrg fchrg qchrg
     2     2     2     0     0    nproj
     1     1           extension_switch
   0                        -4.7620559741558D+00 -6.2528439953681D-01
     1  0.0000000000000D+00 -3.8103853405858D-11  7.4404887806523D-10
     2  1.0000000000000D-02  7.3857907205684D-02 -6.2041971860814D-02
     3  2.0000000000000D-02  1.4755123252102D-01 -1.2375791580573D-01
     4  3.0000000000000D-02  2.2091589541002D-01 -1.8482364660987D-01
     5  4.0000000000000D-02  2.9378881619412D-01 -2.4491864893642D-01
     6  5.0000000000000D-02  3.6600841186232D-01 -3.0372787373885D-01
     7  6.0000000000000D-02  4.3741508636631D-01 -3.6094348895091D-01
     8  7.0000000000000D-02  5.0785171360742D-01 -4.1626657011487D-01
     9  8.0000000000000D-02  5.7716411136035D-01 -4.6940871734255D-01
    10  9.0000000000000D-02  6.4520150442538D-01 -5.2009358591278D-01
    11  1.0000000000000D-01  7.1181697535623D-01 -5.6805831886962D-01
    12  1.1000000000000D-01  7.7686790117350D-01 -6.1305487118172D-01
    13  1.2000000000000D-01  8.4021637454391D-01 -6.5485121633797D-01
    14  1.3000000000000D-01  9.0172960798198D-01 -6.9323242766716D-01
    15  1.4000000000000D-01  9.6128031971335D-01 -7.2800162816028D-01
    16  1.5000000000000D-01  1.0187470999261D+00 -7.5898080411975D-01
    17  1.6000000000000D-01  1.0740147562277D+00 -7.8601147953962D-01
    18  1.7000000000000D-01  1.1269746372207D+00 -8.0895524970899D-01
    19  1.8000000000000D-01  1.1775249332070D+00 -8.2769417410635D-01
    20  1.9000000000000D-01  1.2255709531295D+00 -8.4213103019159D-01
    21  2.0000000000000D-01  1.2710253769613D+00 -8.5218943118201D-01
    22  2.1000000000000D-01  1.3138084828512D+00 -8.5781381229936D-01
    23  2.2000000000000D-01  1.3538483484361D+00 -8.5896929127520D-01
    24  2.3000000000000D-01  1.3910810258263D+00 -8.5564141008385D-01
    25  2.4000000000000D-01  1.4254506898724D+00 -8.4783576592085D-01
    26  2.5000000000000D-01  1.4569097594095D+00 -8.3557754034381D-01
    27  2.6000000000000D-01  1.4854189912751D+00 -8.1891093623274D-01
    28  2.7000000000000D-01  1.5109475469779D+00 -7.9789853279714D-01
    29  2.8000000000000D-01  1.5334730319879D+00 -7.7262056925252D-01
    30  2.9000000000000D-01  1.5529815076947D+00 -7.4317416800578D-01
    31  3.0000000000000D-01  1.5694674761635D+00 -7.0967250822658D-01
    32  3.1000000000000D-01  1.5829338378919D+00 -6.7224396054251D-01
    33  3.2000000000000D-01  1.5933918228426D+00 -6.3103119328629D-01
    34  3.3000000000000D-01  1.6008608950955D+00 -5.8619026025010D-01
    35  3.4000000000000D-01  1.6053686315291D+00 -5.3788967927755D-01
    36  3.5000000000000D-01  1.6069505750010D+00 -4.8630951026051D-01
    37  3.6000000000000D-01  1.6056500625615D+00 -4.3164044022288D-01
    38  3.7000000000000D-01  1.6015180292882D+00 -3.7408288218288D-01
    39  3.8000000000000D-01  1.5946127883882D+00 -3.1384609341094D-01
    40  3.9000000000000D-01  1.5849997882706D+00 -2.5114731756107D-01
    41  4.0000000000000D-01  1.5727513473427D+00 -1.8621095397433D-01
    42  4.1000000000000D-01  1.5579463673426D+00 -1.1926775625403D-01
    43  4.2000000000000D-01  1.5406700260709D+00 -5.0554061019518D-02
    44  4.3000000000000D-01  1.5210134504413D+00  1.9688953419369D-02
    45  4.4000000000000D-01  1.4990733708257D+00  9.1215979838528D-02
    46  4.5000000000000D-01  1.4749517577244D+00  1.6377826873707D-01
    47  4.6000000000000D-01  1.4487554418526D+00  2.3712429219186D-01
    48  4.7000000000000D-01  1.4205957187931D+00  3.1100038911588D-01
    49  4.8000000000000D-01  1.3905879394250D+00  3.8515139680627D-01
    50  4.9000000000000D-01  1.3588510874036D+00  4.5932127422141D-01
    51  5.0000000000000D-01  1.3255073450283D+00  5.3325372281903D-01
    52  5.1000000000000D-01  1.2906816489019D+00  6.0669281101235D-01
    53  5.2000000000000D-01  1.2545012368489D+00  6.7938360834832D-01
    54  5.3000000000000D-01  1.2170951876274D+00  7.5107283538119D-01
    55  5.4000000000000D-01  1.1785939550332D+00  8.2150953490154D-01
    56  5.5000000000000D-01  1.1391288980601D+00  8.9044576969132D-01
    57  5.6000000000000D-01  1.0988318088394D+00  9.5763735131542D-01
    58  5.7000000000000D-01  1.0578344401447D+00  1.0228446036354D+00
    59  5.8000000000000D-01  1.0162680342984D+00  1.0858331637616D+00
    60  5.9000000000000D-01  9.7426285536870D-01  1.1463748220528D+00
    61  6.0000000000000D-01  9.3194772658935D-01  1.2042484015527D+00
    62  6.1000000000000D-01  8.8944957496877D-01  1.2592406759391D+00
    63  6.2000000000000D-01  8.4689298508491D-01  1.3111473236766D+00
    64  6.3000000000000D-01  8.0439976407855D-01  1.3597739146345D+00
    65  6.4000000000000D-01  7.6208851986566D-01  1.4049369239801D+00
    66  6.5000000000000D-01  7.2007425458415D-01  1.4464647667234D+00
    67  6.6000000000000D-01  6.7846797527260D-01  1.4841988448815D+00
    68  6.7000000000000D-01  6.3737632374691D-01  1.5179945978962D+00
    69  6.8000000000000D-01  5.9690122759394D-01  1.5477225456998D+00
    70  6.9000000000000D-01  5.5713957413964D-01  1.5732693126954D+00
    71  7.0000000000000D-01  5.1818290917063D-01  1.5945386199510D+00
    72  7.1000000000000D-01  4.8011716209453D-01  1.6114522321006D+00
    73  7.2000000000000D-01  4.4302239911267D-01  1.6239508448385D+00
    74  7.3000000000000D-01  4.0697260585186D-01  1.6319948984955D+00
    75  7.4000000000000D-01  3.7203550075761D-01  1.6355653030203D+00
    76  7.5000000000000D-01  3.3827238039180D-01  1.6346640597654D+00
    77  7.6000000000000D-01  3.0573799760219D-01  1.6293147658030D+00
    78  7.7000000000000D-01  2.7448047334287D-01  1.6195629870800D+00
    79  7.8000000000000D-01  2.4454124272084D-01  1.6054764875644D+00
    80  7.9000000000000D-01  2.1595503563034D-01  1.5871453026316D+00
    81  8.0000000000000D-01  1.8874989211139D-01  1.5646816462841D+00
    82  8.1000000000000D-01  1.6294721233591D-01  1.5382196433798D+00
    83  8.2000000000000D-01  1.3856184088443D-01  1.5079148798432D+00
    84  8.3000000000000D-01  1.1560218473263D-01  1.4739437658382D+00
    85  8.4000000000000D-01  9.4070364119814D-02  1.4365027090599D+00
    86  8.5000000000000D-01  7.3962395225460D-02  1.3958070976281D+00
    87  8.6000000000000D-01  5.5268403336460D-02  1.3520900945183D+00
    88  8.7000000000000D-01  3.7972864949140D-02  1.3056012479949D+00
    89  8.8000000000000D-01  2.2054877020169D-02  1.2566049250989D+00
    90  8.9000000000000D-01  7.4884513605573D-03  1.2053785778402D+00
    91  9.0000000000000D-01 -5.7571680395449D-03  1.1522108543138D+00
    92  9.1000000000000D-01 -1.7717167158473D-02  1.0973995694726D+00
    93  9.2000000000000D-01 -2.8430806139130D-02  1.0412495526865D+00
    94  9.3000000000000D-01 -3.7941048261930D-02  9.8407039148341D-01
    95  9.4000000000000D-01 -4.6294176552978D-02  9.2617409294469D-01
    96  9.5000000000000D-01 -5.3539400991351D-02  8.6787268608950D-01
    97  9.6000000000000D-01 -5.9728459358837D-02  8.0947579020217D-01
    98  9.7000000000000D-01 -6.4915214826942D-02  7.5128817536894D-01
    99  9.8000000000000D-01 -6.9155253400182D-02  6.9360734253429D-01
   100  9.9000000000000D-01 -7.2505484327817D-02  6.3672115106470D-01
   101  1.0000000000000D+00 -7.5023746560358D-02  5.8090552214624D-01
   102  1.0100000000000D+00 -7.6768424261129D-02  5.2642224631684D-01
   103  1.0200000000000D+00 -7.7798074288032D-02  4.7351692303857D-01
   104  1.0300000000000D+00 -7.8171068431234D-02  4.2241705939515D-01
   105  1.0400000000000D+00 -7.7945253046972D-02  3.7333035390694D-01
   106  1.0500000000000D+00 -7.7177628541345D-02  3.2644318988577D-01
   107  1.0600000000000D+00 -7.5924050951884D-02  2.8191936085111D-01
   108  1.0700000000000D+00 -7.4238957650016D-02  2.3989904834972D-01
   109  1.0800000000000D+00 -7.2175118927765D-02  2.0049806987524D-01
   110  1.0900000000000D+00 -6.9783416975311D-02  1.6380741187810D-01
   111  1.1000000000000D+00 -6.7112653471104D-02  1.2989305977673D-01
   112  1.1100000000000D+00 -6.4209386693272D-02  9.8796133386984D-02
   113  1.1200000000000D+00 -6.1117798773481D-02  7.0533332914518D-02
   114  1.1300000000000D+00 -5.7879593373799D-02  4.5097696700486D-02
   115  1.1400000000000D+00 -5.4533923818385D-02  2.2459669002161D-02
   116  1.1500000000000D+00 -5.1117351308086D-02  2.5684712663688D-03
   117  1.1600000000000D+00 -4.7663832599834D-02 -1.4646232639047D-02
   118  1.1700000000000D+00 -4.4204736492134D-02 -2.9272384690896D-02
   119  1.1800000000000D+00 -4.0768886518646D-02 -4.1413341128588D-02
   120  1.1900000000000D+00 -3.7382631333839D-02 -5.1185396313388D-02
   121  1.2000000000000D+00 -3.4069925705891D-02 -5.8715370355224D-02
   122  1.2100000000000D+00 -3.0852506435341D-02 -6.4136472868668D-02
   123  1.2200000000000D+00 -2.7749801182423D-02 -6.7590052399641D-02
   124  1.2300000000000D+00 -2.4778738150572D-02 -6.9229472658347D-02
   125  1.2400000000000D+00 -2.1953547361633D-02 -6.9223969186111D-02
   126  1.2500000000000D+00 -1.9285868814287D-02 -6.7756170601466D-02
   127  1.2600000000000D+00 -1.6784922621956D-02 -6.5018491900977D-02
   128  1.2700000000000D+00 -1.4457651051427D-02 -6.1210383825596D-02
   129  1.2800000000000D+00 -1.2308882922324D-02 -5.6535279747834D-02
   130  1.2900000000000D+00 -1.0341502271637D-02 -5.1197616464130D-02
   131  1.3000000000000D+00 -8.5566200513515D-03 -4.5399926003146D-02
   132  1.3100000000000D+00 -6.9537455426862D-03 -3.9340042270249D-02
   133  1.3200000000000D+00 -5.5309548483892D-03 -3.3208454602240D-02
   134  1.3300000000000D+00 -4.2850537805004D-03 -2.7185841550455D-02
   135  1.3400000000000D+00 -3.2117325527904D-03 -2.1440817043885D-02
   136  1.3500000000000D+00 -2.3057102605654D-03 -1.6127913518214D-02
   137  1.3600000000000D+00 -1.5608676215407D-03 -1.1385835361658D-02
   138  1.3700000000000D+00 -9.7066554831837D-04 -7.3386106796200D-03
   139  1.3800000000000D+00 -5.2560184094202D-04 -4.0721632064557D-03
   140  1.3900000000000D+00 -2.2076268103320D-04 -1.6953131201083D-03
   141  1.4000000000000D+00 -5.3785187976743D-05 -3.1645402516286D-04
   142  1.4100000000000D+00  6.3027806394504D-06  1.8395533193519D-04
   143  1.4200000000000D+00  8.0729394023731D-06  1.2075049406254D-04
   144  1.4300000000000D+00 -2.1819078371109D-06 -2.9581067404899D-05
   145  1.4400000000000D+00 -1.6304391359160D-06 -2.1292244003818D-05
   146  1.4500000000000D+00  5.6478936096953D-07  7.7967754297257D-06
   147  1.4600000000000D+00  8.8697972856633D-08  1.1994619768012D-06
   148  1.4700000000000D+00 -1.4560668596827D-08 -4.9619334203378D-07
   149  1.4800000000000D+00  0.0000000000000D+00  0.0000000000000D+00
   150  1.4900000000000D+00  0.0000000000000D+00  0.0000000000000D+00
   151  1.5000000000000D+00  0.0000000000000D+00  0.0000000000000D+00
   152  1.5100000000000D+00  0.0000000000000D+00  0.0000000000000D+00
   153  1.5200000000000D+00  0.0000000000000D+00  0.0000000000000D+00
   154  1.5300000000000D+00  0.0000000000000D+00  0.0000000000000D+00
   155  1.5400000000000D+00  0.0000000000000D+00  0.0000000000000D+00
   156  1.5500000000000D+00  0.0000000000000D+00  0.0000000000000D+00
   157  1.5600000000000D+00  0.0000000000000D+00  0.0000000000000D+00
   158  1.5700000000000D+00  0.0000000000000D+00  0.0000000000000D+00
   159  1.5800000000000D+00  0.0000000000000D+00  0.0000000000000D+00
   160  1.5900000000000D+00  0.0000000000000D+00  0.0000000000000D+00
   161  1.6000000000000D+00  0.0000000000000D+00  0.0000000000000D+00
   162  1.6100000000000D+00  0.0000000000000D+00  0.0000000000000D+00
   163  1.6200000000000D+00  0.0000000000000D+00  0.0000000000000D+00
   164  1.6300000000000D+00  0.0000000000000D+00  0.0000000000000D+00
   165  1.6400000000000D+00  0.0000000000000D+00  0.0000000000000D+00
   166  1.6500000000000D+00  0.0000000000000D+00  0.0000000000000D+00
   167  1.6600000000000D+00  0.0000000000000D+00  0.0000000000000D+00
   168  1.6700000000000D+00  0.0000000000000D+00  0.0000000000000D+00
   169  1.6800000000000D+00  0.0000000000000D+00  0.0000000000000D+00
   170  1.6900000000000D+00  0.0000000000000D+00  0.0000000000000D+00
   171  1.7000000000000D+00  0.0000000000000D+00  0.0000000000000D+00
   172  1.7100000000000D+00  0.0000000000000D+00  0.0000000000000D+00
   173  1.7200000000000D+00  0.0000000000000D+00  0.0000000000000D+00
   174  1.7300000000000D+00  0.0000000000000D+00  0.0000000000000D+00
   175  1.7400000000000D+00  0.0000000000000D+00  0.0000000000000D+00
   176  1.7500000000000D+00  0.0000000000000D+00  0.0000000000000D+00
   177  1.7600000000000D+00  0.0000000000000D+00  0.0000000000000D+00
   178  1.7700000000000D+00  0.0000000000000D+00  0.0000000000000D+00
   179  1.7800000000000D+00  0.0000000000000D+00  0.0000000000000D+00
   180  1.7900000000000D+00  0.0000000000000D+00  0.0000000000000D+00
   181  1.8000000000000D+00  0.0000000000000D+00  0.0000000000000D+00
   182  1.8100000000000D+00  0.0000000000000D+00  0.0000000000000D+00
   183  1.8200000000000D+00  0.0000000000000D+00  0.0000000000000D+00
   184  1.8300000000000D+00  0.0000000000000D+00  0.0000000000000D+00
   185  1.8400000000000D+00  0.0000000000000D+00  0.0000000000000D+00
   186  1.8500000000000D+00  0.0000000000000D+00  0.0000000000000D+00
   187  1.8600000000000D+00  0.0000000000000D+00  0.0000000000000D+00
   188  1.8700000000000D+00  0.0000000000000D+00  0.0000000000000D+00
   189  1.8800000000000D+00  0.0000000000000D+00  0.0000000000000D+00
   190  1.8900000000000D+00  0.0000000000000D+00  0.0000000000000D+00
   191  1.9000000000000D+00  0.0000000000000D+00  0.0000000000000D+00
   192  1.9100000000000D+00  0.0000000000000D+00  0.0000000000000D+00
   193  1.9200000000000D+00  0.0000000000000D+00  0.0000000000000D+00
   194  1.9300000000000D+00  0.0000000000000D+00  0.0000000000000D+00
   195  1.9400000000000D+00  0.0000000000000D+00  0.0000000000000D+00
   196  1.9500000000000D+00  0.0000000000000D+00  0.0000000000000D+00
   197  1.9600000000000D+00  0.0000000000000D+00  0.0000000000000D+00
   198  1.9700000000000D+00  0.0000000000000D+00  0.0000000000000D+00
   199  1.9800000000000D+00  0.0000000000000D+00  0.0000000000000D+00
   200  1.9900000000000D+00  0.0000000000000D+00  0.0000000000000D+00
   201  2.0000000000000D+00  0.0000000000000D+00  0.0000000000000D+00
   202  2.0100000000000D+00  0.0000000000000D+00  0.0000000000000D+00
   203  2.0200000000000D+00  0.0000000000000D+00  0.0000000000000D+00
   204  2.0300000000000D+00  0.0000000000000D+00  0.0000000000000D+00
   205  2.0400000000000D+00  0.0000000000000D+00  0.0000000000000D+00
   206  2.0500000000000D+00  0.0000000000000D+00  0.0000000000000D+00
   207  2.0600000000000D+00  0.0000000000000D+00  0.0000000000000D+00
   208  2.0700000000000D+00  0.0000000000000D+00  0.0000000000000D+00
   209  2.0800000000000D+00  0.0000000000000D+00  0.0000000000000D+00
   210  2.0900000000000D+00  0.0000000000000D+00  0.0000000000000D+00
   211  2.1000000000000D+00  0.0000000000000D+00  0.0000000000000D+00
   212  2.1100000000000D+00  0.0000000000000D+00  0.0000000000000D+00
   213  2.1200000000000D+00  0.0000000000000D+00  0.0000000000000D+00
   214  2.1300000000000D+00  0.0000000000000D+00  0.0000000000000D+00
   215  2.1400000000000D+00  0.0000000000000D+00  0.0000000000000D+00
   216  2.1500000000000D+00  0.0000000000000D+00  0.0000000000000D+00
   217  2.1600000000000D+00  0.0000000000000D+00  0.0000000000000D+00
   218  2.1700000000000D+00  0.0000000000000D+00  0.0000000000000D+00
   219  2.1800000000000D+00  0.0000000000000D+00  0.0000000000000D+00
   220  2.1900000000000D+00  0.0000000000000D+00  0.0000000000000D+00
   221  2.2000000000000D+00  0.0000000000000D+00  0.0000000000000D+00
   222  2.2100000000000D+00  0.0000000000000D+00  0.0000000000000D+00
   223  2.2200000000000D+00  0.0000000000000D+00  0.0000000000000D+00
   224  2.2300000000000D+00  0.0000000000000D+00  0.0000000000000D+00
   225  2.2400000000000D+00  0.0000000000000D+00  0.0000000000000D+00
   226  2.2500000000000D+00  0.0000000000000D+00  0.0000000000000D+00
   227  2.2600000000000D+00  0.0000000000000D+00  0.0000000000000D+00
   228  2.2700000000000D+00  0.0000000000000D+00  0.0000000000000D+00
   229  2.2800000000000D+00  0.0000000000000D+00  0.0000000000000D+00
   230  2.2900000000000D+00  0.0000000000000D+00  0.0000000000000D+00
   231  2.3000000000000D+00  0.0000000000000D+00  0.0000000000000D+00
   232  2.3100000000000D+00  0.0000000000000D+00  0.0000000000000D+00
   233  2.3200000000000D+00  0.0000000000000D+00  0.0000000000000D+00
   234  2.3300000000000D+00  0.0000000000000D+00  0.0000000000000D+00
   235  2.3400000000000D+00  0.0000000000000D+00  0.0000000000000D+00
   236  2.3500000000000D+00  0.0000000000000D+00  0.0000000000000D+00
   237  2.3600000000000D+00  0.0000000000000D+00  0.0000000000000D+00
   238  2.3700000000000D+00  0.0000000000000D+00  0.0000000000000D+00
   239  2.3800000000000D+00  0.0000000000000D+00  0.0000000000000D+00
   240  2.3900000000000D+00  0.0000000000000D+00  0.0000000000000D+00
   241  2.4000000000000D+00  0.0000000000000D+00  0.0000000000000D+00
   242  2.4100000000000D+00  0.0000000000000D+00  0.0000000000000D+00
   243  2.4200000000000D+00  0.0000000000000D+00  0.0000000000000D+00
   244  2.4300000000000D+00  0.0000000000000D+00  0.0000000000000D+00
   245  2.4400000000000D+00  0.0000000000000D+00  0.0000000000000D+00
   246  2.4500000000000D+00  0.0000000000000D+00  0.0000000000000D+00
   247  2.4600000000000D+00  0.0000000000000D+00  0.0000000000000D+00
   248  2.4700000000000D+00  0.0000000000000D+00  0.0000000000000D+00
   249  2.4800000000000D+00  0.0000000000000D+00  0.0000000000000D+00
   250  2.4900000000000D+00  0.0000000000000D+00  0.0000000000000D+00
   251  2.5000000000000D+00  0.0000000000000D+00  0.0000000000000D+00
   252  2.5100000000000D+00  0.0000000000000D+00  0.0000000000000D+00
   253  2.5200000000000D+00  0.0000000000000D+00  0.0000000000000D+00
   254  2.5300000000000D+00  0.0000000000000D+00  0.0000000000000D+00
   255  2.5400000000000D+00  0.0000000000000D+00  0.0000000000000D+00
   256  2.5500000000000D+00  0.0000000000000D+00  0.0000000000000D+00
   257  2.5600000000000D+00  0.0000000000000D+00  0.0000000000000D+00
   258  2.5700000000000D+00  0.0000000000000D+00  0.0000000000000D+00
   259  2.5800000000000D+00  0.0000000000000D+00  0.0000000000000D+00
   260  2.5900000000000D+00  0.0000000000000D+00  0.0000000000000D+00
   261  2.6000000000000D+00  0.0000000000000D+00  0.0000000000000D+00
   262  2.6100000000000D+00  0.0000000000000D+00  0.0000000000000D+00
   263  2.6200000000000D+00  0.0000000000000D+00  0.0000000000000D+00
   264  2.6300000000000D+00  0.0000000000000D+00  0.0000000000000D+00
   265  2.6400000000000D+00  0.0000000000000D+00  0.0000000000000D+00
   266  2.6500000000000D+00  0.0000000000000D+00  0.0000000000000D+00
   267  2.6600000000000D+00  0.0000000000000D+00  0.0000000000000D+00
   268  2.6700000000000D+00  0.0000000000000D+00  0.0000000000000D+00
   269  2.6800000000000D+00  0.0000000000000D+00  0.0000000000000D+00
   270  2.6900000000000D+00  0.0000000000000D+00  0.0000000000000D+00
   271  2.7000000000000D+00  0.0000000000000D+00  0.0000000000000D+00
   272  2.7100000000000D+00  0.0000000000000D+00  0.0000000000000D+00
   273  2.7200000000000D+00  0.0000000000000D+00  0.0000000000000D+00
   274  2.7300000000000D+00  0.0000000000000D+00  0.0000000000000D+00
   275  2.7400000000000D+00  0.0000000000000D+00  0.0000000000000D+00
   276  2.7500000000000D+00  0.0000000000000D+00  0.0000000000000D+00
   277  2.7600000000000D+00  0.0000000000000D+00  0.0000000000000D+00
   278  2.7700000000000D+00  0.0000000000000D+00  0.0000000000000D+00
   279  2.7800000000000D+00  0.0000000000000D+00  0.0000000000000D+00
   280  2.7900000000000D+00  0.0000000000000D+00  0.0000000000000D+00
   281  2.8000000000000D+00  0.0000000000000D+00  0.0000000000000D+00
   282  2.8100000000000D+00  0.0000000000000D+00  0.0000000000000D+00
   283  2.8200000000000D+00  0.0000000000000D+00  0.0000000000000D+00
   284  2.8300000000000D+00  0.0000000000000D+00  0.0000000000000D+00
   285  2.8400000000000D+00  0.0000000000000D+00  0.0000000000000D+00
   286  2.8500000000000D+00  0.0000000000000D+00  0.0000000000000D+00
   287  2.8600000000000D+00  0.0000000000000D+00  0.0000000000000D+00
   288  2.8700000000000D+00  0.0000000000000D+00  0.0000000000000D+00
   289  2.8800000000000D+00  0.0000000000000D+00  0.0000000000000D+00
   290  2.8900000000000D+00  0.0000000000000D+00  0.0000000000000D+00
   291  2.9000000000000D+00  0.0000000000000D+00  0.0000000000000D+00
   292  2.9100000000000D+00  0.0000000000000D+00  0.0000000000000D+00
   293  2.9200000000000D+00  0.0000000000000D+00  0.0000000000000D+00
   294  2.9300000000000D+00  0.0000000000000D+00  0.0000000000000D+00
   295  2.9400000000000D+00  0.0000000000000D+00  0.0000000000000D+00
   296  2.9500000000000D+00  0.0000000000000D+00  0.0000000000000D+00
   297  2.9600000000000D+00  0.0000000000000D+00  0.0000000000000D+00
   298  2.9700000000000D+00  0.0000000000000D+00  0.0000000000000D+00
   299  2.9800000000000D+00  0.0000000000000D+00  0.0000000000000D+00
   300  2.9900000000000D+00  0.0000000000000D+00  0.0000000000000D+00
   301  3.0000000000000D+00  0.0000000000000D+00  0.0000000000000D+00
   302  3.0100000000000D+00  0.0000000000000D+00  0.0000000000000D+00
   303  3.0200000000000D+00  0.0000000000000D+00  0.0000000000000D+00
   304  3.0300000000000D+00  0.0000000000000D+00  0.0000000000000D+00
   305  3.0400000000000D+00  0.0000000000000D+00  0.0000000000000D+00
   306  3.0500000000000D+00  0.0000000000000D+00  0.0000000000000D+00
   307  3.0600000000000D+00  0.0000000000000D+00  0.0000000000000D+00
   308  3.0700000000000D+00  0.0000000000000D+00  0.0000000000000D+00
   309  3.0800000000000D+00  0.0000000000000D+00  0.0000000000000D+00
   310  3.0900000000000D+00  0.0000000000000D+00  0.0000000000000D+00
   311  3.1000000000000D+00  0.0000000000000D+00  0.0000000000000D+00
   312  3.1100000000000D+00  0.0000000000000D+00  0.0000000000000D+00
   313  3.1200000000000D+00  0.0000000000000D+00  0.0000000000000D+00
   314  3.1300000000000D+00  0.0000000000000D+00  0.0000000000000D+00
   315  3.1400000000000D+00  0.0000000000000D+00  0.0000000000000D+00
   316  3.1500000000000D+00  0.0000000000000D+00  0.0000000000000D+00
   317  3.1600000000000D+00  0.0000000000000D+00  0.0000000000000D+00
   318  3.1700000000000D+00  0.0000000000000D+00  0.0000000000000D+00
   319  3.1800000000000D+00  0.0000000000000D+00  0.0000000000000D+00
   320  3.1900000000000D+00  0.0000000000000D+00  0.0000000000000D+00
   321  3.2000000000000D+00  0.0000000000000D+00  0.0000000000000D+00
   322  3.2100000000000D+00  0.0000000000000D+00  0.0000000000000D+00
   323  3.2200000000000D+00  0.0000000000000D+00  0.0000000000000D+00
   324  3.2300000000000D+00  0.0000000000000D+00  0.0000000000000D+00
   325  3.2400000000000D+00  0.0000000000000D+00  0.0000000000000D+00
   326  3.2500000000000D+00  0.0000000000000D+00  0.0000000000000D+00
   327  3.2600000000000D+00  0.0000000000000D+00  0.0000000000000D+00
   328  3.2700000000000D+00  0.0000000000000D+00  0.0000000000000D+00
   329  3.2800000000000D+00  0.0000000000000D+00  0.0000000000000D+00
   330  3.2900000000000D+00  0.0000000000000D+00  0.0000000000000D+00
   331  3.3000000000000D+00  0.0000000000000D+00  0.0000000000000D+00
   332  3.3100000000000D+00  0.0000000000000D+00  0.0000000000000D+00
   333  3.3200000000000D+00  0.0000000000000D+00  0.0000000000000D+00
   334  3.3300000000000D+00  0.0000000000000D+00  0.0000000000000D+00
   335  3.3400000000000D+00  0.0000000000000D+00  0.0000000000000D+00
   336  3.3500000000000D+00  0.0000000000000D+00  0.0000000000000D+00
   337  3.3600000000000D+00  0.0000000000000D+00  0.0000000000000D+00
   338  3.3700000000000D+00  0.0000000000000D+00  0.0000000000000D+00
   339  3.3800000000000D+00  0.0000000000000D+00  0.0000000000000D+00
   340  3.3900000000000D+00  0.0000000000000D+00  0.0000000000000D+00
   341  3.4000000000000D+00  0.0000000000000D+00  0.0000000000000D+00
   342  3.4100000000000D+00  0.0000000000000D+00  0.0000000000000D+00
   343  3.4200000000000D+00  0.0000000000000D+00  0.0000000000000D+00
   344  3.4300000000000D+00  0.0000000000000D+00  0.0000000000000D+00
   345  3.4400000000000D+00  0.0000000000000D+00  0.0000000000000D+00
   346  3.4500000000000D+00  0.0000000000000D+00  0.0000000000000D+00
   347  3.4600000000000D+00  0.0000000000000D+00  0.0000000000000D+00
   348  3.4700000000000D+00  0.0000000000000D+00  0.0000000000000D+00
   349  3.4800000000000D+00  0.0000000000000D+00  0.0000000000000D+00
   350  3.4900000000000D+00  0.0000000000000D+00  0.0000000000000D+00
   351  3.5000000000000D+00  0.0000000000000D+00  0.0000000000000D+00
   352  3.5100000000000D+00  0.0000000000000D+00  0.0000000000000D+00
   353  3.5200000000000D+00  0.0000000000000D+00  0.0000000000000D+00
   354  3.5300000000000D+00  0.0000000000000D+00  0.0000000000000D+00
   355  3.5400000000000D+00  0.0000000000000D+00  0.0000000000000D+00
   356  3.5500000000000D+00  0.0000000000000D+00  0.0000000000000D+00
   357  3.5600000000000D+00  0.0000000000000D+00  0.0000000000000D+00
   358  3.5700000000000D+00  0.0000000000000D+00  0.0000000000000D+00
   359  3.5800000000000D+00  0.0000000000000D+00  0.0000000000000D+00
   360  3.5900000000000D+00  0.0000000000000D+00  0.0000000000000D+00
   361  3.6000000000000D+00  0.0000000000000D+00  0.0000000000000D+00
   362  3.6100000000000D+00  0.0000000000000D+00  0.0000000000000D+00
   363  3.6200000000000D+00  0.0000000000000D+00  0.0000000000000D+00
   364  3.6300000000000D+00  0.0000000000000D+00  0.0000000000000D+00
   365  3.6400000000000D+00  0.0000000000000D+00  0.0000000000000D+00
   366  3.6500000000000D+00  0.0000000000000D+00  0.0000000000000D+00
   367  3.6600000000000D+00  0.0000000000000D+00  0.0000000000000D+00
   368  3.6700000000000D+00  0.0000000000000D+00  0.0000000000000D+00
   369  3.6800000000000D+00  0.0000000000000D+00  0.0000000000000D+00
   370  3.6900000000000D+00  0.0000000000000D+00  0.0000000000000D+00
   371  3.7000000000000D+00  0.0000000000000D+00  0.0000000000000D+00
   372  3.7100000000000D+00  0.0000000000000D+00  0.0000000000000D+00
   373  3.7200000000000D+00  0.0000000000000D+00  0.0000000000000D+00
   374  3.7300000000000D+00  0.0000000000000D+00  0.0000000000000D+00
   375  3.7400000000000D+00  0.0000000000000D+00  0.0000000000000D+00
   376  3.7500000000000D+00  0.0000000000000D+00  0.0000000000000D+00
   377  3.7600000000000D+00  0.0000000000000D+00  0.0000000000000D+00
   378  3.7700000000000D+00  0.0000000000000D+00  0.0000000000000D+00
   379  3.7800000000000D+00  0.0000000000000D+00  0.0000000000000D+00
   380  3.7900000000000D+00  0.0000000000000D+00  0.0000000000000D+00
   381  3.8000000000000D+00  0.0000000000000D+00  0.0000000000000D+00
   382  3.8100000000000D+00  0.0000000000000D+00  0.0000000000000D+00
   383  3.8200000000000D+00  0.0000000000000D+00  0.0000000000000D+00
   384  3.8300000000000D+00  0.0000000000000D+00  0.0000000000000D+00
   385  3.8400000000000D+00  0.0000000000000D+00  0.0000000000000D+00
   386  3.8500000000000D+00  0.0000000000000D+00  0.0000000000000D+00
   387  3.8600000000000D+00  0.0000000000000D+00  0.0000000000000D+00
   388  3.8700000000000D+00  0.0000000000000D+00  0.0000000000000D+00
   389  3.8800000000000D+00  0.0000000000000D+00  0.0000000000000D+00
   390  3.8900000000000D+00  0.0000000000000D+00  0.0000000000000D+00
   391  3.9000000000000D+00  0.0000000000000D+00  0.0000000000000D+00
   392  3.9100000000000D+00  0.0000000000000D+00  0.0000000000000D+00
   393  3.9200000000000D+00  0.0000000000000D+00  0.0000000000000D+00
   394  3.9300000000000D+00  0.0000000000000D+00  0.0000000000000D+00
   395  3.9400000000000D+00  0.0000000000000D+00  0.0000000000000D+00
   396  3.9500000000000D+00  0.0000000000000D+00  0.0000000000000D+00
   397  3.9600000000000D+00  0.0000000000000D+00  0.0000000000000D+00
   398  3.9700000000000D+00  0.0000000000000D+00  0.0000000000000D+00
   399  3.9800000000000D+00  0.0000000000000D+00  0.0000000000000D+00
   400  3.9900000000000D+00  0.0000000000000D+00  0.0000000000000D+00
   401  4.0000000000000D+00  0.0000000000000D+00  0.0000000000000D+00
   402  4.0100000000000D+00  0.0000000000000D+00  0.0000000000000D+00
   403  4.0200000000000D+00  0.0000000000000D+00  0.0000000000000D+00
   404  4.0300000000000D+00  0.0000000000000D+00  0.0000000000000D+00
   405  4.0400000000000D+00  0.0000000000000D+00  0.0000000000000D+00
   406  4.0500000000000D+00  0.0000000000000D+00  0.0000000000000D+00
   407  4.0600000000000D+00  0.0000000000000D+00  0.0000000000000D+00
   408  4.0700000000000D+00  0.0000000000000D+00  0.0000000000000D+00
   409  4.0800000000000D+00  0.0000000000000D+00  0.0000000000000D+00
   410  4.0900000000000D+00  0.0000000000000D+00  0.0000000000000D+00
   411  4.1000000000000D+00  0.0000000000000D+00  0.0000000000000D+00
   412  4.1100000000000D+00  0.0000000000000D+00  0.0000000000000D+00
   413  4.1200000000000D+00  0.0000000000000D+00  0.0000000000000D+00
   414  4.1300000000000D+00  0.0000000000000D+00  0.0000000000000D+00
   415  4.1400000000000D+00  0.0000000000000D+00  0.0000000000000D+00
   416  4.1500000000000D+00  0.0000000000000D+00  0.0000000000000D+00
   417  4.1600000000000D+00  0.0000000000000D+00  0.0000000000000D+00
   418  4.1700000000000D+00  0.0000000000000D+00  0.0000000000000D+00
   419  4.1800000000000D+00  0.0000000000000D+00  0.0000000000000D+00
   420  4.1900000000000D+00  0.0000000000000D+00  0.0000000000000D+00
   421  4.2000000000000D+00  0.0000000000000D+00  0.0000000000000D+00
   422  4.2100000000000D+00  0.0000000000000D+00  0.0000000000000D+00