P     ONCVPSP-3.3.0  r_core=   1.46089   1.55067   1.70594
     15.0000      5.0000      220408    zatom,zion,pspd
     8       2   2     4   600     0    pspcod,pspxc,lmax,lloc,mmax,r2well
  5.99000000  0.00000000  0.00000000    rchrg fchrg qchrg
     2     2     2     0     0    nproj
     1     1           extension_switch
   0                         6.7949026349371D+00  1.0783616926963D+00
     1  0.0000000000000D+00 -1.7631443249844D-08  4.3223003509674D-08
     2  1.0000000000000D-02  5.6100265695365D-02 -5.2641202777535D-02
     3  2.0000000000000D-02  1.1165876333783D-01 -1.0400618722364D-01
     4  3.0000000000000D-02  1.6614480064227D-01 -1.5284584995760D-01
     5  4.0000000000000D-02  2.1904960802444D-01 -1.9796475682603D-01
     6  5.0000000000000D-02  2.6989673250127D-01 -2.3824658719747D-01
     7  6.0000000000000D-02  3.1825176354001D-01 -2.7267794147271D-01
     8  7.0000000000000D-02  3.6373118937902D-01 -3.0037001820439D-01
     9  8.0000000000000D-02  4.0601019997442D-01 -3.2057771044226D-01
    10  9.0000000000000D-02  4.4482927409687D-01 -3.3271572330768D-01
    11  1.0000000000000D-01  4.7999941278487D-01 -3.3637137530531D-01
    12  1.1000000000000D-01  5.1140590886254D-01 -3.3131381329190D-01
    13  1.2000000000000D-01  5.3901057199980D-01 -3.1749944399321D-01
    14  1.3000000000000D-01  5.6285236023753D-01 -2.9507346203023D-01
    15  1.4000000000000D-01  5.8304640138885D-01 -2.6436743403879D-01
    16  1.5000000000000D-01  5.9978142060887D-01 -2.2589297904809D-01
    17  1.6000000000000D-01  6.1331562304044D-01 -1.8033166520172D-01
    18  1.7000000000000D-01  6.2397111213523D-01 -1.2852132055466D-01
    19  1.8000000000000D-01  6.3212695438107D-01 -7.1439029493896D-02
    20  1.9000000000000D-01  6.3821102912890D-01 -1.0181154818807D-02
    21  2.0000000000000D-01  6.4269082743948D-01  5.4059212708218D-02
    22  2.1000000000000D-01  6.4606338584912D-01  1.2001692172765D-01
    23  2.2000000000000D-01  6.4884455923517D-01  1.8638104422027D-01
    24  2.3000000000000D-01  6.5155785116978D-01  2.5182224093376D-01
    25  2.4000000000000D-01  6.5472302998820D-01  3.1502064919724D-01
    26  2.5000000000000D-01  6.5884476405540D-01  3.7469372123563D-01
    27  2.6000000000000D-01  6.6440151027325D-01  4.2962343983159D-01
    28  2.7000000000000D-01  6.7183488570408D-01  4.7868234850220D-01
    29  2.8000000000000D-01  6.8153974336206D-01  5.2085785509274D-01
    30  2.9000000000000D-01  6.9385515990432D-01  5.5527430044195D-01
    31  3.0000000000000D-01  7.0905652538840D-01  5.8121232692636D-01
    32  3.1000000000000D-01  7.2734890378869D-01  5.9812513441654D-01
    33  3.2000000000000D-01  7.4886180799714D-01  6.0565127245590D-01
    34  3.3000000000000D-01  7.7364550505790D-01  6.0362368610959D-01
    35  3.4000000000000D-01  8.0166893695137D-01  5.9207480757862D-01
    36  3.5000000000000D-01  8.3281930994604D-01  5.7123756486819D-01
    37  3.6000000000000D-01  8.6690337201725D-01  5.4154226096761D-01
    38  3.7000000000000D-01  9.0365036375322D-01  5.0360936051596D-01
    39  3.8000000000000D-01  9.4271659420984D-01  4.5823830412411D-01
    40  3.9000000000000D-01  9.8369156001409D-01  4.0639255174078D-01
    41  4.0000000000000D-01  1.0261054943199D+00  3.4918113404630D-01
    42  4.1000000000000D-01  1.0694382026264D+00  2.8783706327454D-01
    43  4.2000000000000D-01  1.1131290155784D+00  2.2369302062368D-01
    44  4.3000000000000D-01  1.1565876652343D+00  1.5815479517314D-01
    45  4.4000000000000D-01  1.1992058713905D+00  9.2672997787676D-02
    46  4.5000000000000D-01  1.2403694088146D+00  2.8713611839201D-02
    47  4.6000000000000D-01  1.2794704149933D+00 -3.2272030103955D-02
    48  4.7000000000000D-01  1.3159196914949D+00 -8.8877238788268D-02
    49  4.8000000000000D-01  1.3491587504375D+00 -1.3976932148450D-01
    50  4.9000000000000D-01  1.3786713608954D+00 -1.8371769587901D-01
    51  5.0000000000000D-01  1.4039943583389D+00 -2.1962018516383D-01
    52  5.1000000000000D-01  1.4247274932374D+00 -2.4652694709885D-01
    53  5.2000000000000D-01  1.4405421125550D+00 -2.6366153322766D-01
    54  5.3000000000000D-01  1.4511884896672D+00 -2.7043862815474D-01
    55  5.4000000000000D-01  1.4565016438679D+00 -2.6647808188488D-01
    56  5.5000000000000D-01  1.4564055196236D+00 -2.5161491952541D-01
    57  5.6000000000000D-01  1.4509154274209D+00 -2.2590509053179D-01
    58  5.7000000000000D-01  1.4401386820602D+00 -1.8962680320926D-01
    59  5.8000000000000D-01  1.4242734095699D+00 -1.4327737690013D-01
    60  5.9000000000000D-01  1.4036055302780D+00 -8.7565633513442D-02
    61  6.0000000000000D-01  1.3785039618056D+00 -2.3399938902013D-02
    62  6.1000000000000D-01  1.3494141216523D+00  4.8127907396943D-02
    63  6.2000000000000D-01  1.3168498432915D+00  1.2576265164727D-01
    64  6.3000000000000D-01  1.2813838522984D+00  2.0810907239933D-01
    65  6.4000000000000D-01  1.2436369786750D+00  2.9365853925064D-01
    66  6.5000000000000D-01  1.2042663080826D+00  3.8081814431082D-01
    67  6.6000000000000D-01  1.1639524974240D+00  4.6794185133421D-01
    68  6.7000000000000D-01  1.1233864985914D+00  5.5336306278141D-01
    69  6.8000000000000D-01  1.0832559479726D+00  6.3542797165152D-01
    70  6.9000000000000D-01  1.0442314881130D+00  7.1252904377201D-01
    71  7.0000000000000D-01  1.0069532915049D+00  7.8313796790958D-01
    72  7.1000000000000D-01  9.7201805483034D-01  8.4583741558867D-01
    73  7.2000000000000D-01  9.3996672503318D-01  8.9935097004818D-01
    74  7.3000000000000D-01  9.1127320643234D-01  9.4257061411234D-01
    75  7.4000000000000D-01  8.8633428098864D-01  9.7458120920528D-01
    76  7.5000000000000D-01  8.6546095204081D-01  9.9468145170993D-01
    77  7.6000000000000D-01  8.4887139567830D-01  1.0024008575026D+00
    78  7.7000000000000D-01  8.3668567417377D-01  9.9751239892399D-01
    79  7.8000000000000D-01  8.2892233258406D-01  9.8004050060762D-01
    80  7.9000000000000D-01  8.2549696397565D-01  9.5026418843849D-01
    81  8.0000000000000D-01  8.2622279099886D-01  9.0871527882807D-01
    82  8.1000000000000D-01  8.3081327260859D-01  8.5617159127787D-01
    83  8.2000000000000D-01  8.3888670533508D-01  7.9364526408228D-01
    84  8.3000000000000D-01  8.4997274940510D-01  7.2236634911871D-01
    85  8.4000000000000D-01  8.6352077196716D-01  6.4376195511247D-01
    86  8.5000000000000D-01  8.7890986342938D-01  5.5943129770810D-01
    87  8.6000000000000D-01  8.9546034919362D-01  4.7111709736799D-01
    88  8.7000000000000D-01  9.1244658853458D-01  3.8067384090427D-01
    89  8.8000000000000D-01  9.2911082564331D-01  2.9003348782334D-01
    90  8.9000000000000D-01  9.4467783547328D-01  2.0116925729256D-01
    91  9.0000000000000D-01  9.5837008945731D-01  1.1605817429214D-01
    92  9.1000000000000D-01  9.6942315377743D-01  3.6643083481912D-02
    93  9.2000000000000D-01  9.7710102594008D-01 -3.5205144172598D-02
    94  9.3000000000000D-01  9.8071111410664D-01 -9.7724484320187D-02
    95  9.4000000000000D-01  9.7961856801558D-01 -1.4929699535388D-01
    96  9.5000000000000D-01  9.7325968031438D-01 -1.8848172654360D-01
    97  9.6000000000000D-01  9.6115409285058D-01 -2.1404464624280D-01
    98  9.7000000000000D-01  9.4291556280305D-01 -2.2498498881037D-01
    99  9.8000000000000D-01  9.1826106940112D-01 -2.2055748308101D-01
   100  9.9000000000000D-01  8.8701807196824D-01 -2.0028999951004D-01
   101  1.0000000000000D+00  8.4912976368519D-01 -1.6399623641130D-01
   102  1.0100000000000D+00  8.0465820258224D-01 -1.1178315746514D-01
   103  1.0200000000000D+00  7.5378524063784D-01 -4.4052989927290D-02
   104  1.0300000000000D+00  6.9681121410434D-01  3.8500302746796D-02
   105  1.0400000000000D+00  6.3415139854039D-01  1.3490006057383D-01
   106  1.0500000000000D+00  5.6633027635932D-01  2.4390135641222D-01
   107  1.0600000000000D+00  4.9397370613383D-01  3.6401059034027D-01
   108  1.0700000000000D+00  4.1779912275136D-01  4.9350992619886D-01
   109  1.0800000000000D+00  3.3860393690051D-01  6.3048615052686D-01
   110  1.0900000000000D+00  2.5725233590996D-01  7.7286345163206D-01
   111  1.1000000000000D+00  1.7466072066035D-01  9.1843953619092D-01
   112  1.1100000000000D+00  9.1782041468754D-02  1.0649244316332D+00
   113  1.1200000000000D+00  9.5893169190459D-03  1.2099812709511D+00
   114  1.1300000000000D+00 -7.0941362705332D-02  1.3512683134136D+00
   115  1.1400000000000D+00 -1.4884803434162D-01  1.4864814269179D+00
   116  1.1500000000000D+00 -2.2319994296600D-01  1.6133962400257D+00
   117  1.1600000000000D+00 -2.9311418613691D-01  1.7299091777477D+00
   118  1.1700000000000D+00 -3.5777161141338D-01  1.8340766137328D+00
   119  1.1800000000000D+00 -4.1643166224060D-01  1.9241513877884D+00
   120  1.1900000000000D+00 -4.6844589220848D-01  1.9986159982632D+00
   121  1.2000000000000D+00 -5.1326989165765D-01  2.0562118385858D+00
   122  1.2100000000000D+00 -5.5047339063533D-01  2.0959638970238D+00
   123  1.2200000000000D+00 -5.7974834115183D-01  2.1172004353514D+00
   124  1.2300000000000D+00 -6.0091482264969D-01  2.1195672635398D+00
   125  1.2400000000000D+00 -6.1392464842209D-01  2.1030363113329D+00
   126  1.2500000000000D+00 -6.1886258443999D-01  2.0679082810864D+00
   127  1.2600000000000D+00 -6.1594515997093D-01  2.0148093342391D+00
   128  1.2700000000000D+00 -6.0551707883078D-01  1.9446818365779D+00
   129  1.2800000000000D+00 -5.8804526855888D-01  1.8587692578619D+00
   130  1.2900000000000D+00 -5.6411069013158D-01  1.7585955321785D+00
   131  1.3000000000000D+00 -5.3439804136883D-01  1.6459392113754D+00
   132  1.3100000000000D+00 -4.9968351994264D-01  1.5228028248973D+00
   133  1.3200000000000D+00 -4.6082088978764D-01  1.3913780515739D+00
   134  1.3300000000000D+00 -4.1872608223083D-01  1.2540072780362D+00
   135  1.3400000000000D+00 -3.7436061054797D-01  1.1131422354661D+00
   136  1.3500000000000D+00 -3.2871411205735D-01  9.7130049345370D-01
   137  1.3600000000000D+00 -2.8278631660122D-01  8.3102055217698D-01
   138  1.3700000000000D+00 -2.3756878818625D-01  6.9481639216499D-01
   139  1.3800000000000D+00 -1.9402675705649D-01  5.6513226764475D-01
   140  1.3900000000000D+00 -1.5308139166074D-01  4.4429860938750D-01
   141  1.4000000000000D+00 -1.1559282437018D-01  3.3448981401675D-01
   142  1.4100000000000D+00 -8.2345929541008D-02  2.3768953908128D-01
   143  1.4200000000000D+00 -5.4048145394172D-02  1.5569006494318D-01
   144  1.4300000000000D+00 -3.1157350145398D-02  8.9603236929404D-02
   145  1.4400000000000D+00 -1.4325174001993D-02  4.1136779441088D-02
   146  1.4500000000000D+00 -4.3262514655855D-03  1.2393309986868D-02
   147  1.4600000000000D+00 -1.7365530945318D-04  4.7297852852492D-04
   148  1.4700000000000D+00  4.5856362376987D-04 -1.3268093860840D-03
   149  1.4800000000000D+00 -5.4029592630289D-05  1.5602459084802D-04
   150  1.4900000000000D+00 -1.2793039829249D-04  3.6899728257635D-04
   151  1.5000000000000D+00  1.9021270657249D-05 -5.5054174141472D-05
   152  1.5100000000000D+00  1.7442435772641D-05 -5.0457532497811D-05
   153  1.5200000000000D+00  3.1312087026797D-08 -2.7431426844086D-08
   154  1.5300000000000D+00  1.2698601564111D-08 -1.1124801726886D-08
   155  1.5400000000000D+00  0.0000000000000D+00  0.0000000000000D+00
   156  1.5500000000000D+00  0.0000000000000D+00  0.0000000000000D+00
   157  1.5600000000000D+00  0.0000000000000D+00  0.0000000000000D+00
   158  1.5700000000000D+00  0.0000000000000D+00  0.0000000000000D+00
   159  1.5800000000000D+00  0.0000000000000D+00  0.0000000000000D+00
   160  1.5900000000000D+00  0.0000000000000D+00  0.0000000000000D+00
   161  1.6000000000000D+00  0.0000000000000D+00  0.0000000000000D+00
   162  1.6100000000000D+00  0.0000000000000D+00  0.0000000000000D+00
   163  1.6200000000000D+00  0.0000000000000D+00  0.0000000000000D+00
   164  1.6300000000000D+00  0.0000000000000D+00  0.0000000000000D+00
   165  1.6400000000000D+00  0.0000000000000D+00  0.0000000000000D+00
   166  1.6500000000000D+00  0.0000000000000D+00  0.0000000000000D+00
   167  1.6600000000000D+00  0.0000000000000D+00  0.0000000000000D+00
   168  1.6700000000000D+00  0.0000000000000D+00  0.0000000000000D+00
   169  1.6800000000000D+00  0.0000000000000D+00  0.0000000000000D+00
   170  1.6900000000000D+00  0.0000000000000D+00  0.0000000000000D+00
   171  1.7000000000000D+00  0.0000000000000D+00  0.0000000000000D+00
   172  1.7100000000000D+00  0.0000000000000D+00  0.0000000000000D+00
   173  1.7200000000000D+00  0.0000000000000D+00  0.0000000000000D+00
   174  1.7300000000000D+00  0.0000000000000D+00  0.0000000000000D+00
   175  1.7400000000000D+00  0.0000000000000D+00  0.0000000000000D+00
   176  1.7500000000000D+00  0.0000000000000D+00  0.0000000000000D+00
   177  1.7600000000000D+00  0.0000000000000D+00  0.0000000000000D+00
   178  1.7700000000000D+00  0.0000000000000D+00  0.0000000000000D+00
   179  1.7800000000000D+00  0.0000000000000D+00  0.0000000000000D+00
   180  1.7900000000000D+00  0.0000000000000D+00  0.0000000000000D+00
   181  1.8000000000000D+00  0.0000000000000D+00  0.0000000000000D+00
   182  1.8100000000000D+00  0.0000000000000D+00  0.0000000000000D+00
   183  1.8200000000000D+00  0.0000000000000D+00  0.0000000000000D+00
   184  1.8300000000000D+00  0.0000000000000D+00  0.0000000000000D+00
   185  1.8400000000000D+00  0.0000000000000D+00  0.0000000000000D+00
   186  1.8500000000000D+00  0.0000000000000D+00  0.0000000000000D+00
   187  1.8600000000000D+00  0.0000000000000D+00  0.0000000000000D+00
   188  1.8700000000000D+00  0.0000000000000D+00  0.0000000000000D+00
   189  1.8800000000000D+00  0.0000000000000D+00  0.0000000000000D+00
   190  1.8900000000000D+00  0.0000000000000D+00  0.0000000000000D+00
   191  1.9000000000000D+00  0.0000000000000D+00  0.0000000000000D+00
   192  1.9100000000000D+00  0.0000000000000D+00  0.0000000000000D+00
   193  1.9200000000000D+00  0.0000000000000D+00  0.0000000000000D+00
   194  1.9300000000000D+00  0.0000000000000D+00  0.0000000000000D+00
   195  1.9400000000000D+00  0.0000000000000D+00  0.0000000000000D+00
   196  1.9500000000000D+00  0.0000000000000D+00  0.0000000000000D+00
   197  1.9600000000000D+00  0.0000000000000D+00  0.0000000000000D+00
   198  1.9700000000000D+00  0.0000000000000D+00  0.0000000000000D+00
   199  1.9800000000000D+00  0.0000000000000D+00  0.0000000000000D+00
   200  1.9900000000000D+00  0.0000000000000D+00  0.0000000000000D+00
   201  2.0000000000000D+00  0.0000000000000D+00  0.0000000000000D+00
   202  2.0100000000000D+00  0.0000000000000D+00  0.0000000000000D+00
   203  2.0200000000000D+00  0.0000000000000D+00  0.0000000000000D+00
   204  2.0300000000000D+00  0.0000000000000D+00  0.0000000000000D+00
   205  2.0400000000000D+00  0.0000000000000D+00  0.0000000000000D+00
   206  2.0500000000000D+00  0.0000000000000D+00  0.0000000000000D+00
   207  2.0600000000000D+00  0.0000000000000D+00  0.0000000000000D+00
   208  2.0700000000000D+00  0.0000000000000D+00  0.0000000000000D+00
   209  2.0800000000000D+00  0.0000000000000D+00  0.0000000000000D+00
   210  2.0900000000000D+00  0.0000000000000D+00  0.0000000000000D+00
   211  2.1000000000000D+00  0.0000000000000D+00  0.0000000000000D+00
   212  2.1100000000000D+00  0.0000000000000D+00  0.0000000000000D+00
   213  2.1200000000000D+00  0.0000000000000D+00  0.0000000000000D+00
   214  2.1300000000000D+00  0.0000000000000D+00  0.0000000000000D+00
   215  2.1400000000000D+00  0.0000000000000D+00  0.0000000000000D+00
   216  2.1500000000000D+00  0.0000000000000D+00  0.0000000000000D+00
   217  2.1600000000000D+00  0.0000000000000D+00  0.0000000000000D+00
   218  2.1700000000000D+00  0.0000000000000D+00  0.0000000000000D+00
   219  2.1800000000000D+00  0.0000000000000D+00  0.0000000000000D+00
   220  2.1900000000000D+00  0.0000000000000D+00  0.0000000000000D+00
   221  2.2000000000000D+00  0.0000000000000D+00  0.0000000000000D+00
   222  2.2100000000000D+00  0.0000000000000D+00  0.0000000000000D+00
   223  2.2200000000000D+00  0.0000000000000D+00  0.0000000000000D+00
   224  2.2300000000000D+00  0.0000000000000D+00  0.0000000000000D+00
   225  2.2400000000000D+00  0.0000000000000D+00  0.0000000000000D+00
   226  2.2500000000000D+00  0.0000000000000D+00  0.0000000000000D+00
   227  2.2600000000000D+00  0.0000000000000D+00  0.0000000000000D+00
   228  2.2700000000000D+00  0.0000000000000D+00  0.0000000000000D+00
   229  2.2800000000000D+00  0.0000000000000D+00  0.0000000000000D+00
   230  2.2900000000000D+00  0.0000000000000D+00  0.0000000000000D+00
   231  2.3000000000000D+00  0.0000000000000D+00  0.0000000000000D+00
   232  2.3100000000000D+00  0.0000000000000D+00  0.0000000000000D+00
   233  2.3200000000000D+00  0.0000000000000D+00  0.0000000000000D+00
   234  2.3300000000000D+00  0.0000000000000D+00  0.0000000000000D+00
   235  2.3400000000000D+00  0.0000000000000D+00  0.0000000000000D+00
   236  2.3500000000000D+00  0.0000000000000D+00  0.0000000000000D+00
   237  2.3600000000000D+00  0.0000000000000D+00  0.0000000000000D+00
   238  2.3700000000000D+00  0.0000000000000D+00  0.0000000000000D+00
   239  2.3800000000000D+00  0.0000000000000D+00  0.0000000000000D+00
   240  2.3900000000000D+00  0.0000000000000D+00  0.0000000000000D+00
   241  2.4000000000000D+00  0.0000000000000D+00  0.0000000000000D+00
   242  2.4100000000000D+00  0.0000000000000D+00  0.0000000000000D+00
   243  2.4200000000000D+00  0.0000000000000D+00  0.0000000000000D+00
   244  2.4300000000000D+00  0.0000000000000D+00  0.0000000000000D+00
   245  2.4400000000000D+00  0.0000000000000D+00  0.0000000000000D+00
   246  2.4500000000000D+00  0.0000000000000D+00  0.0000000000000D+00
   247  2.4600000000000D+00  0.0000000000000D+00  0.0000000000000D+00
   248  2.4700000000000D+00  0.0000000000000D+00  0.0000000000000D+00
   249  2.4800000000000D+00  0.0000000000000D+00  0.0000000000000D+00
   250  2.4900000000000D+00  0.0000000000000D+00  0.0000000000000D+00
   251  2.5000000000000D+00  0.0000000000000D+00  0.0000000000000D+00
   252  2.5100000000000D+00  0.0000000000000D+00  0.0000000000000D+00
   253  2.5200000000000D+00  0.0000000000000D+00  0.0000000000000D+00
   254  2.5300000000000D+00  0.0000000000000D+00  0.0000000000000D+00
   255  2.5400000000000D+00  0.0000000000000D+00  0.0000000000000D+00
   256  2.5500000000000D+00  0.0000000000000D+00  0.0000000000000D+00
   257  2.5600000000000D+00  0.0000000000000D+00  0.0000000000000D+00
   258  2.5700000000000D+00  0.0000000000000D+00  0.0000000000000D+00
   259  2.5800000000000D+00  0.0000000000000D+00  0.0000000000000D+00
   260  2.5900000000000D+00  0.0000000000000D+00  0.0000000000000D+00
   261  2.6000000000000D+00  0.0000000000000D+00  0.0000000000000D+00
   262  2.6100000000000D+00  0.0000000000000D+00  0.0000000000000D+00
   263  2.6200000000000D+00  0.0000000000000D+00  0.0000000000000D+00
   264  2.6300000000000D+00  0.0000000000000D+00  0.0000000000000D+00
   265  2.6400000000000D+00  0.0000000000000D+00  0.0000000000000D+00
   266  2.6500000000000D+00  0.0000000000000D+00  0.0000000000000D+00
   267  2.6600000000000D+00  0.0000000000000D+00  0.0000000000000D+00
   268  2.6700000000000D+00  0.0000000000000D+00  0.0000000000000D+00
   269  2.6800000000000D+00  0.0000000000000D+00  0.0000000000000D+00
   270  2.6900000000000D+00  0.0000000000000D+00  0.0000000000000D+00
   271  2.7000000000000D+00  0.0000000000000D+00  0.0000000000000D+00
   272  2.7100000000000D+00  0.0000000000000D+00  0.0000000000000D+00
   273  2.7200000000000D+00  0.0000000000000D+00  0.0000000000000D+00
   274  2.7300000000000D+00  0.0000000000000D+00  0.0000000000000D+00
   275  2.7400000000000D+00  0.0000000000000D+00  0.0000000000000D+00
   276  2.7500000000000D+00  0.0000000000000D+00  0.0000000000000D+00
   277  2.7600000000000D+00  0.0000000000000D+00  0.0000000000000D+00
   278  2.7700000000000D+00  0.0000000000000D+00  0.0000000000000D+00
   279  2.7800000000000D+00  0.0000000000000D+00  0.0000000000000D+00
   280  2.7900000000000D+00  0.0000000000000D+00  0.0000000000000D+00
   281  2.8000000000000D+00  0.0000000000000D+00  0.0000000000000D+00
   282  2.8100000000000D+00  0.0000000000000D+00  0.0000000000000D+00
   283  2.8200000000000D+00  0.0000000000000D+00  0.0000000000000D+00
   284  2.8300000000000D+00  0.0000000000000D+00  0.0000000000000D+00
   285  2.8400000000000D+00  0.0000000000000D+00  0.0000000000000D+00
   286  2.8500000000000D+00  0.0000000000000D+00  0.0000000000000D+00
   287  2.8600000000000D+00  0.0000000000000D+00  0.0000000000000D+00
   288  2.8700000000000D+00  0.0000000000000D+00  0.0000000000000D+00
   289  2.8800000000000D+00  0.0000000000000D+00  0.0000000000000D+00
   290  2.8900000000000D+00  0.0000000000000D+00  0.0000000000000D+00
   291  2.9000000000000D+00  0.0000000000000D+00  0.0000000000000D+00
   292  2.9100000000000D+00  0.0000000000000D+00  0.0000000000000D+00
   293  2.9200000000000D+00  0.0000000000000D+00  0.0000000000000D+00
   294  2.9300000000000D+00  0.0000000000000D+00  0.0000000000000D+00
   295  2.9400000000000D+00  0.0000000000000D+00  0.0000000000000D+00
   296  2.9500000000000D+00  0.0000000000000D+00  0.0000000000000D+00
   297  2.9600000000000D+00  0.0000000000000D+00  0.0000000000000D+00
   298  2.9700000000000D+00  0.0000000000000D+00  0.0000000000000D+00
   299  2.9800000000000D+00  0.0000000000000D+00  0.0000000000000D+00
   300  2.9900000000000D+00  0.0000000000000D+00  0.0000000000000D+00
   301  3.0000000000000D+00  0.0000000000000D+00  0.0000000000000D+00
   302  3.0100000000000D+00  0.0000000000000D+00  0.0000000000000D+00
   303  3.0200000000000D+00  0.0000000000000D+00  0.0000000000000D+00
   304  3.0300000000000D+00  0.0000000000000D+00  0.0000000000000D+00
   305  3.0400000000000D+00  0.0000000000000D+00  0.0000000000000D+00
   306  3.0500000000000D+00  0.0000000000000D+00  0.0000000000000D+00
   307  3.0600000000000D+00  0.0000000000000D+00  0.0000000000000D+00
   308  3.0700000000000D+00  0.0000000000000D+00  0.0000000000000D+00
   309  3.0800000000000D+00  0.0000000000000D+00  0.0000000000000D+00
   310  3.0900000000000D+00  0.0000000000000D+00  0.0000000000000D+00
   311  3.1000000000000D+00  0.0000000000000D+00  0.0000000000000D+00
   312  3.1100000000000D+00  0.0000000000000D+00  0.0000000000000D+00
   313  3.1200000000000D+00  0.0000000000000D+00  0.0000000000000D+00
   314  3.1300000000000D+00  0.0000000000000D+00  0.0000000000000D+00
   315  3.1400000000000D+00  0.0000000000000D+00  0.0000000000000D+00
   316  3.1500000000000D+00  0.0000000000000D+00  0.0000000000000D+00
   317  3.1600000000000D+00  0.0000000000000D+00  0.0000000000000D+00
   318  3.1700000000000D+00  0.0000000000000D+00  0.0000000000000D+00
   319  3.1800000000000D+00  0.0000000000000D+00  0.0000000000000D+00
   320  3.1900000000000D+00  0.0000000000000D+00  0.0000000000000D+00
   321  3.2000000000000D+00  0.0000000000000D+00  0.0000000000000D+00
   322  3.2100000000000D+00  0.0000000000000D+00  0.0000000000000D+00
   323  3.2200000000000D+00  0.0000000000000D+00  0.0000000000000D+00
   324  3.2300000000000D+00  0.0000000000000D+00  0.0000000000000D+00
   325  3.2400000000000D+00  0.0000000000000D+00  0.0000000000000D+00
   326  3.2500000000000D+00  0.0000000000000D+00  0.0000000000000D+00
   327  3.2600000000000D+00  0.0000000000000D+00  0.0000000000000D+00
   328  3.2700000000000D+00  0.0000000000000D+00  0.0000000000000D+00
   329  3.2800000000000D+00  0.0000000000000D+00  0.0000000000000D+00
   330  3.2900000000000D+00  0.0000000000000D+00  0.0000000000000D+00
   331  3.3000000000000D+00  0.0000000000000D+00  0.0000000000000D+00
   332  3.3100000000000D+00  0.0000000000000D+00  0.0000000000000D+00
   333  3.3200000000000D+00  0.0000000000000D+00  0.0000000000000D+00
   334  3.3300000000000D+00  0.0000000000000D+00  0.0000000000000D+00
   335  3.3400000000000D+00  0.0000000000000D+00  0.0000000000000D+00
   336  3.3500000000000D+00  0.0000000000000D+00  0.0000000000000D+00
   337  3.3600000000000D+00  0.0000000000000D+00  0.0000000000000D+00
   338  3.3700000000000D+00  0.0000000000000D+00  0.0000000000000D+00
   339  3.3800000000000D+00  0.0000000000000D+00  0.0000000000000D+00
   340  3.3900000000000D+00  0.0000000000000D+00  0.0000000000000D+00
   341  3.4000000000000D+00  0.0000000000000D+00  0.0000000000000D+00
   342  3.4100000000000D+00  0.0000000000000D+00  0.0000000000000D+00
   343  3.4200000000000D+00  0.0000000000000D+00  0.0000000000000D+00
   344  3.4300000000000D+00  0.0000000000000D+00  0.0000000000000D+00
   345  3.4400000000000D+00  0.0000000000000D+00  0.0000000000000D+00
   346  3.4500000000000D+00  0.0000000000000D+00  0.0000000000000D+00
   347  3.4600000000000D+00  0.0000000000000D+00  0.0000000000000D+00
   348  3.4700000000000D+00  0.0000000000000D+00  0.0000000000000D+00
   349  3.4800000000000D+00  0.0000000000000D+00  0.0000000000000D+00
   350  3.4900000000000D+00  0.0000000000000D+00  0.0000000000000D+00
   351  3.5000000000000D+00  0.0000000000000D+00  0.0000000000000D+00
   352  3.5100000000000D+00  0.0000000000000D+00  0.0000000000000D+00
   353  3.5200000000000D+00  0.0000000000000D+00  0.0000000000000D+00
   354  3.5300000000000D+00  0.0000000000000D+00  0.0000000000000D+00
   355  3.5400000000000D+00  0.0000000000000D+00  0.0000000000000D+00
   356  3.5500000000000D+00  0.0000000000000D+00  0.0000000000000D+00
   357  3.5600000000000D+00  0.0000000000000D+00  0.0000000000000D+00
   358  3.5700000000000D+00  0.0000000000000D+00  0.0000000000000D+00
   359  3.5800000000000D+00  0.0000000000000D+00  0.0000000000000D+00
   360  3.5900000000000D+00  0.0000000000000D+00  0.0000000000000D+00
   361  3.6000000000000D+00  0.0000000000000D+00  0.0000000000000D+00
   362  3.6100000000000D+00  0.0000000000000D+00  0.0000000000000D+00
   363  3.6200000000000D+00  0.0000000000000D+00  0.0000000000000D+00
   364  3.6300000000000D+00  0.0000000000000D+00  0.0000000000000D+00
   365  3.6400000000000D+00  0.0000000000000D+00  0.0000000000000D+00
   366  3.6500000000000D+00  0.0000000000000D+00  0.0000000000000D+00
   367  3.6600000000000D+00  0.0000000000000D+00  0.0000000000000D+00
   368  3.6700000000000D+00  0.0000000000000D+00  0.0000000000000D+00
   369  3.6800000000000D+00  0.0000000000000D+00  0.0000000000000D+00
   370  3.6900000000000D+00  0.0000000000000D+00  0.0000000000000D+00
   371  3.7000000000000D+00  0.0000000000000D+00  0.0000000000000D+00
   372  3.7100000000000D+00  0.0000000000000D+00  0.0000000000000D+00
   373  3.7200000000000D+00  0.0000000000000D+00  0.0000000000000D+00
   374  3.7300000000000D+00  0.0000000000000D+00  0.0000000000000D+00
   375  3.7400000000000D+00  0.0000000000000D+00  0.0000000000000D+00
   376  3.7500000000000D+00  0.0000000000000D+00  0.0000000000000D+00
   377  3.7600000000000D+00  0.0000000000000D+00  0.0000000000000D+00
   378  3.7700000000000D+00  0.0000000000000D+00  0.0000000000000D+00
   379  3.7800000000000D+00  0.0000000000000D+00  0.0000000000000D+00
   380  3.7900000000000D+00  0.0000000000000D+00  0.0000000000000D+00
   381  3.8000000000000D+00  0.0000000000000D+00  0.0000000000000D+00
   382  3.8100000000000D+00  0.0000000000000D+00  0.0000000000000D+00
   383  3.8200000000000D+00  0.0000000000000D+00  0.0000000000000D+00
   384  3.8300000000000D+00  0.0000000000000D+00  0.0000000000000D+00
   385  3.8400000000000D+00  0.0000000000000D+00  0.0000000000000D+00
   386  3.8500000000000D+00  0.0000000000000D+00  0.0000000000000D+00
   387  3.8600000000000D+00  0.0000000000000D+00  0.0000000000000D+00
   388  3.8700000000000D+00  0.0000000000000D+00  0.0000000000000D+00
   389  3.8800000000000D+00  0.0000000000000D+00  0.0000000000000D+00
   390  3.8900000000000D+00  0.0000000000000D+00  0.0000000000000D+00
   391  3.9000000000000D+00  0.0000000000000D+00  0.0000000000000D+00
   392  3.9100000000000D+00  0.0000000000000D+00  0.0000000000000D+00
   393  3.9200000000000D+00  0.0000000000000D+00  0.0000000000000D+00
   394  3.9300000000000D+00  0.0000000000000D+00  0.0000000000000D+00
   395  3.9400000000000D+00  0.0000000000000D+00  0.0000000000000D+00
   396  3.9500000000000D+00  0.0000000000000D+00  0.0000000000000D+00
   397  3.9600000000000D+00  0.0000000000000D+00  0.0000000000000D+00
   398  3.9700000000000D+00  0.0000000000000D+00  0.0000000000000D+00
   399  3.9800000000000D+00  0.0000000000000D+00  0.0000000000000D+00
   400  3.9900000000000D+00  0.0000000000000D+00  0.0000000000000D+00
   401  4.0000000000000D+00  0.0000000000000D+00  0.0000000000000D+00
   402  4.0100000000000D+00  0.0000000000000D+00  0.0000000000000D+00
   403  4.0200000000000D+00  0.0000000000000D+00  0.0000000000000D+00
   404  4.0300000000000D+00  0.0000000000000D+00  0.0000000000000D+00
   405  4.0400000000000D+00  0.0000000000000D+00  0.0000000000000D+00
   406  4.0500000000000D+00  0.0000000000000D+00  0.0000000000000D+00
   407  4.0600000000000D+00  0.0000000000000D+00  0.0000000000000D+00
   408  4.0700000000000D+00  0.0000000000000D+00  0.0000000000000D+00
   409  4.0800000000000D+00  0.0000000000000D+00  0.0000000000000D+00
   410  4.0900000000000D+00  0.0000000000000D+00  0.0000000000000D+00
   411  4.1000000000000D+00  0.0000000000000D+00  0.0000000000000D+00
   412  4.1100000000000D+00  0.0000000000000D+00  0.0000000000000D+00
   413  4.1200000000000D+00  0.0000000000000D+00  0.0000000000000D+00
   414  4.1300000000000D+00  0.0000000000000D+00  0.0000000000000D+00
   415  4.1400000000000D+00  0.0000000000000D+00  0.0000000000000D+00
   416  4.1500000000000D+00  0.0000000000000D+00  0.0000000000000D+00
   417  4.1600000000000D+00  0.0000000000000D+00  0.0000000000000D+00
   418  4.1700000000000D+00  0.0000000000000D+00  0.0000000000000D+00
   419  4.1800000000000D+00  0.0000000000000D+00  0.0000000000000D+00
   420  4.1900000000000D+00  0.0000000000000D+00  0.0000000000000D+00
   421  4.2000000000000D+00  0.0000000000000D+00  0.0000000000000D+00
   422  4.2100000000000D+00  0.0000000000000D+00  0.0000000000000D+00