Ga    ONCVPSP-3.3.0  r_core=   1.66857   1.75011   1.90252
     31.0000     13.0000      220408    zatom,zion,pspd
     8       2   2     4   600     0    pspcod,pspxc,lmax,lloc,mmax,r2well
  5.99000000  0.00000000  0.00000000    rchrg fchrg qchrg
     2     2     2     0     0    nproj
     1     1           extension_switch
   0                         7.0452882340945D+00  1.1720089165995D+00
     1  0.0000000000000D+00  1.6984586697147D-09 -3.1429654989701D-09
     2  1.0000000000000D-02 -2.2397482779020D-03  4.7055591152271D-02
     3  2.0000000000000D-02 -4.1640698924492D-03  9.3527804927872D-02
     4  3.0000000000000D-02 -5.4612503695566D-03  1.3884006743410D-01
     5  4.0000000000000D-02 -5.8269588668375D-03  1.8242933657668D-01
     6  5.0000000000000D-02 -4.9678385582999D-03  2.2375268084186D-01
     7  6.0000000000000D-02 -2.6049765177720D-03  2.6229363578861D-01
     8  7.0000000000000D-02  1.5227850528441D-03  2.9756826787948D-01
     9  8.0000000000000D-02  7.6557327059331D-03  3.2913087842204D-01
    10  9.0000000000000D-02  1.6010395107130D-02  3.5657928425899D-01
    11  1.0000000000000D-01  2.6776917778331D-02  3.7955961639415D-01
    12  1.1000000000000D-01  4.0116728330265D-02  3.9777058292614D-01
    13  1.2000000000000D-01  5.6160518174380D-02  4.1096714842608D-01
    14  1.3000000000000D-01  7.5006563306718D-02  4.1896358818073D-01
    15  1.4000000000000D-01  9.6719403113844D-02  4.2163588246104D-01
    16  1.5000000000000D-01  1.2132889230124D-01  4.1892342309724D-01
    17  1.6000000000000D-01  1.4882963702779D-01  4.1083001207148D-01
    18  1.7000000000000D-01  1.7918082218945D-01  3.9742413949668D-01
    19  1.8000000000000D-01  2.1230643257319D-01  3.7883853615765D-01
    20  1.9000000000000D-01  2.4809586634493D-01  3.5526900366281D-01
    21  2.0000000000000D-01  2.8640493508631D-01  3.2697253310982D-01
    22  2.1000000000000D-01  3.2705724040031D-01  2.9426473092169D-01
    23  2.2000000000000D-01  3.6984591300969D-01  2.5751657808011D-01
    24  2.3000000000000D-01  4.1453569631821D-01  2.1715055628758D-01
    25  2.4000000000000D-01  4.6086535263471D-01  1.7363618155329D-01
    26  2.5000000000000D-01  5.0855036671562D-01  1.2748499224177D-01
    27  2.6000000000000D-01  5.5728591799910D-01  7.9245044681626D-02
    28  2.7000000000000D-01  6.0675008992055D-01  2.9494974934612D-02
    29  2.8000000000000D-01  6.5660728204603D-01 -2.1162309784357D-02
    30  2.9000000000000D-01  7.0651178846675D-01 -7.2106242322515D-02
    31  3.0000000000000D-01  7.5611150398959D-01 -1.2270543821701D-01
    32  3.1000000000000D-01  8.0505171815642D-01 -1.7232469575629D-01
    33  3.2000000000000D-01  8.5297895604633D-01 -2.2033207752532D-01
    34  3.3000000000000D-01  8.9954482417233D-01 -2.6610599632142D-01
    35  3.4000000000000D-01  9.4440981958622D-01 -3.0904222798844D-01
    36  3.5000000000000D-01  9.8724706055421D-01 -3.4856077420601D-01
    37  3.6000000000000D-01  1.0277458978629D+00 -3.8411249958804D-01
    38  3.7000000000000D-01  1.0656153669513D+00 -4.1518546957697D-01
    39  3.8000000000000D-01  1.1005874426323D+00 -4.4131091854958D-01
    40  3.9000000000000D-01  1.1324200601488D+00 -4.6206878124692D-01
    41  4.0000000000000D-01  1.1608998686870D+00 -4.7709272506986D-01
    42  4.1000000000000D-01  1.1858446862183D+00 -4.8607462589670D-01
    43  4.2000000000000D-01  1.2071056276358D+00 -4.8876843583135D-01
    44  4.3000000000000D-01  1.2245688815545D+00 -4.8499339761787D-01
    45  4.4000000000000D-01  1.2381571148275D+00 -4.7463656729729D-01
    46  4.5000000000000D-01  1.2478304877540D+00 -4.5765461396346D-01
    47  4.6000000000000D-01  1.2535872670723D+00 -4.3407487312105D-01
    48  4.7000000000000D-01  1.2554640281095D+00 -4.0399563808097D-01
    49  4.8000000000000D-01  1.2535354418450D+00 -3.6758568196307D-01
    50  4.9000000000000D-01  1.2479136470953D+00 -3.2508301112694D-01
    51  5.0000000000000D-01  1.2387472124982D+00 -2.7679285913258D-01
    52  5.1000000000000D-01  1.2262196974108D+00 -2.2308493855475D-01
    53  5.2000000000000D-01  1.2105478251994D+00 -1.6438997605171D-01
    54  5.3000000000000D-01  1.1919792866325D+00 -1.0119556392688D-01
    55  5.4000000000000D-01  1.1707901951600D+00 -3.4041368953438D-02
    56  5.5000000000000D-01  1.1472822197125D+00  3.6486253648171D-02
    57  5.6000000000000D-01  1.1217794242498D+00  1.0976018654254D-01
    58  5.7000000000000D-01  1.0946248465961D+00  1.8511895628000D-01
    59  5.8000000000000D-01  1.0661768520599D+00  2.6187355285757D-01
    60  5.9000000000000D-01  1.0368052999522D+00  3.3931459191741D-01
    61  6.0000000000000D-01  1.0068875633146D+00  4.1671974461079D-01
    62  6.1000000000000D-01  9.7680444396988D-01  4.9336135685812D-01
    63  6.2000000000000D-01  9.4693602634544D-01  5.6851417728209D-01
    64  6.3000000000000D-01  9.1765751441838D-01  6.4146311147217D-01
    65  6.4000000000000D-01  8.8933509654443D-01  7.1151091950318D-01
    66  6.5000000000000D-01  8.6232188288226D-01  7.7798577376939D-01
    67  6.6000000000000D-01  8.3695395958582D-01  8.4024859523306D-01
    68  6.7000000000000D-01  8.1354660292651D-01  8.9770008810250D-01
    69  6.8000000000000D-01  7.9239069503628D-01  9.4978739572173D-01
    70  6.9000000000000D-01  7.7374938102415D-01  9.9601030408969D-01
    71  7.0000000000000D-01  7.5785500485812D-01  1.0359269238435D+00
    72  7.1000000000000D-01  7.4490635861887D-01  1.0691587867438D+00
    73  7.2000000000000D-01  7.3506627658374D-01  1.0953952985747D+00
    74  7.3000000000000D-01  7.2845960206478D-01  1.1143974969616D+00
    75  7.4000000000000D-01  7.2517155110210D-01  1.1260010697301D+00
    76  7.5000000000000D-01  7.2524649299916D-01  1.1301185970907D+00
    77  7.6000000000000D-01  7.2868716333984D-01  1.1267409890233D+00
    78  7.7000000000000D-01  7.3545432058307D-01  1.1159380976853D+00
    79  7.8000000000000D-01  7.4546685266279D-01  1.0978584933455D+00
    80  7.9000000000000D-01  7.5860233523230D-01  1.0727284012450D+00
    81  8.0000000000000D-01  7.7469803837857D-01  1.0408498057248D+00
    82  8.1000000000000D-01  7.9355237382402D-01  1.0025977368874D+00
    83  8.2000000000000D-01  8.1492676987962D-01  9.5841676388107D-01
    84  8.3000000000000D-01  8.3854795677357D-01  9.0881672749813D-01
    85  8.4000000000000D-01  8.6411064050000D-01  8.5436775308770D-01
    86  8.5000000000000D-01  8.9128053906172D-01  7.9569459269041D-01
    87  8.6000000000000D-01  9.1969775096777D-01  7.3347035273701D-01
    88  8.7000000000000D-01  9.4898042213239D-01  6.6840967052129D-01
    89  8.8000000000000D-01  9.7872867395120D-01  6.0126140888976D-01
    90  8.9000000000000D-01  1.0085287523385D+00  5.3280094411261D-01
    91  9.0000000000000D-01  1.0379573549317D+00  4.6382212665180D-01
    92  9.1000000000000D-01  1.0665860915352D+00  3.9512899846749D-01
    93  9.2000000000000D-01  1.0939860312083D+00  3.2752735355404D-01
    94  9.3000000000000D-01  1.1197322882288D+00  2.6181623053987D-01
    95  9.4000000000000D-01  1.1434085984847D+00  1.9877942739184D-01
    96  9.5000000000000D-01  1.1646118377041D+00  1.3917712848857D-01
    97  9.6000000000000D-01  1.1829564332645D+00  8.3737733658809D-02
    98  9.7000000000000D-01  1.1980786222281D+00  3.3149977053735D-02
    99  9.8000000000000D-01  1.2096405096200D+00 -1.1944578875540D-02
   100  9.9000000000000D-01  1.2173338828556D+00 -5.0958592582385D-02
   101  1.0000000000000D+00  1.2208837405890D+00 -8.3365458539037D-02
   102  1.0100000000000D+00  1.2200514970635D+00 -1.0870521625755D-01
   103  1.0200000000000D+00  1.2146378263542D+00 -1.2658978740440D-01
   104  1.0300000000000D+00  1.2044851144560D+00 -1.3670748186236D-01
   105  1.0400000000000D+00  1.1894794911880D+00 -1.3882672109406D-01
   106  1.0500000000000D+00  1.1695524183124D+00 -1.3279893542989D-01
   107  1.0600000000000D+00  1.1446818147416D+00 -1.1856060024987D-01
   108  1.0700000000000D+00  1.1148927045918D+00 -9.6134385138375D-02
   109  1.0800000000000D+00  1.0802573789830D+00 -6.5629399669032D-02
   110  1.0900000000000D+00  1.0408950670665D+00 -2.7240528013808D-02
   111  1.1000000000000D+00  9.9697111773720D-01  1.8753144304548D-02
   112  1.1100000000000D+00  9.4869569804718D-01  7.1990799716273D-02
   113  1.1200000000000D+00  8.9632202003004D-01  1.3203323157098D-01
   114  1.1300000000000D+00  8.4014411194434D-01  1.9836703038496D-01
   115  1.1400000000000D+00  7.8049415560964D-01  2.7040957245756D-01
   116  1.1500000000000D+00  7.1773941585173D-01  3.4751476188180D-01
   117  1.1600000000000D+00  6.5227879279939D-01  4.2897946820489D-01
   118  1.1700000000000D+00  5.8453903106598D-01  5.1405059589039D-01
   119  1.1800000000000D+00  5.1497062472147D-01  6.0193271270362D-01
   120  1.1900000000000D+00  4.4404345978116D-01  6.9179615892590D-01
   121  1.2000000000000D+00  3.7224223897182D-01  7.8278555369909D-01
   122  1.2100000000000D+00  3.0006173559850D-01  8.7402861098822D-01
   123  1.2200000000000D+00  2.2800192634503D-01  9.6464517211712D-01
   124  1.2300000000000D+00  1.5656305334676D-01  1.0537563609327D+00
   125  1.2400000000000D+00  8.6240667051058D-02  1.1404937654923D+00
   126  1.2500000000000D+00  1.7520702302596D-02  1.2240085485343D+00
   127  1.2600000000000D+00 -4.9125361009795D-02  1.3034803910903D+00
   128  1.2700000000000D+00 -1.1324520134858D-01  1.3781261735176D+00
   129  1.2800000000000D+00 -1.7441017270969D-01  1.4472083004334D+00
   130  1.2900000000000D+00 -2.3221958866478D-01  1.5100425822965D+00
   131  1.3000000000000D+00 -2.8630472640557D-01  1.5660055865245D+00
   132  1.3100000000000D+00 -3.3633250764364D-01  1.6145413780335D+00
   133  1.3200000000000D+00 -3.8200881901967D-01  1.6551675799584D+00
   134  1.3300000000000D+00 -4.2308143281502D-01  1.6874806818326D+00
   135  1.3400000000000D+00 -4.5934249760752D-01  1.7111605391048D+00
   136  1.3500000000000D+00 -4.9063057439055D-01  1.7259740188521D+00
   137  1.3600000000000D+00 -5.1683218875506D-01  1.7317777373630D+00
   138  1.3700000000000D+00 -5.3788288852520D-01  1.7285198704179D+00
   139  1.3800000000000D+00 -5.5376779169285D-01  1.7162410085769D+00
   140  1.3900000000000D+00 -5.6452161432483D-01  1.6950740388363D+00
   141  1.4000000000000D+00 -5.7022818519163D-01  1.6652430659014D+00
   142  1.4100000000000D+00 -5.7101944110656D-01  1.6270613624931D+00
   143  1.4200000000000D+00 -5.6707391945203D-01  1.5809283801101D+00
   144  1.4300000000000D+00 -5.5861476185467D-01  1.5273258469463D+00
   145  1.4400000000000D+00 -5.4590724251902D-01  1.4668129788509D+00
   146  1.4500000000000D+00 -5.2925585783564D-01  1.4000208722931D+00
   147  1.4600000000000D+00 -5.0900099351040D-01  1.3276461103234D+00
   148  1.4700000000000D+00 -4.8551521463418D-01  1.2504436669056D+00
   149  1.4800000000000D+00 -4.5919921060300D-01  1.1692191697946D+00
   150  1.4900000000000D+00 -4.3047743725551D-01  1.0848206016523D+00
   151  1.5000000000000D+00 -3.9979350587569D-01  9.9812953257808D-01
   152  1.5100000000000D+00 -3.6760535919234D-01  9.1005195960778D-01
   153  1.5200000000000D+00 -3.3438029328513D-01  8.2150886353127D-01
   154  1.5300000000000D+00 -3.0058986944647D-01  7.3342656587680D-01
   155  1.5400000000000D+00 -2.6670477499775D-01  6.4672699653310D-01
   156  1.5500000000000D+00 -2.3318968239935D-01  5.6231796461904D-01
   157  1.5600000000000D+00 -2.0049816358803D-01  4.8108353766856D-01
   158  1.5700000000000D+00 -1.6906771103779D-01  4.0387463590266D-01
   159  1.5800000000000D+00 -1.3931491292573D-01  3.3149989138987D-01
   160  1.5900000000000D+00 -1.1163085851349D-01  2.6471702947334D-01
   161  1.6000000000000D+00 -8.6376771359296D-02  2.0422457291267D-01
   162  1.6100000000000D+00 -6.3880111517058D-02  1.5065440403007D-01
   163  1.6200000000000D+00 -4.4446256257119D-02  1.0460130139750D-01
   164  1.6300000000000D+00 -2.8265499955445D-02  6.6406662251252D-02
   165  1.6400000000000D+00 -1.5521426940178D-02  3.6414660625500D-02
   166  1.6500000000000D+00 -6.6788206909131D-03  1.5647249985410D-02
   167  1.6600000000000D+00 -1.7788416971725D-03  4.1546609520983D-03
   168  1.6700000000000D+00  1.4352976414548D-04 -3.4699667623878D-04
   169  1.6800000000000D+00  3.2819222846361D-04 -7.7298835205082D-04
   170  1.6900000000000D+00 -3.3011131064897D-05  7.7682324194635D-05
   171  1.7000000000000D+00 -1.1190439252786D-04  2.6310332155172D-04
   172  1.7100000000000D+00  4.4253788010069D-06 -1.0437535376558D-05
   173  1.7200000000000D+00  2.0932958529899D-05 -4.9351714722838D-05
   174  1.7300000000000D+00 -1.4074230454708D-09  7.0918794401365D-09
   175  1.7400000000000D+00 -1.2080379312944D-08  6.0871955986666D-08
   176  1.7500000000000D+00 -1.9876243732245D-10  1.0015462282323D-09
   177  1.7600000000000D+00  0.0000000000000D+00  0.0000000000000D+00
   178  1.7700000000000D+00  0.0000000000000D+00  0.0000000000000D+00
   179  1.7800000000000D+00  0.0000000000000D+00  0.0000000000000D+00
   180  1.7900000000000D+00  0.0000000000000D+00  0.0000000000000D+00
   181  1.8000000000000D+00  0.0000000000000D+00  0.0000000000000D+00
   182  1.8100000000000D+00  0.0000000000000D+00  0.0000000000000D+00
   183  1.8200000000000D+00  0.0000000000000D+00  0.0000000000000D+00
   184  1.8300000000000D+00  0.0000000000000D+00  0.0000000000000D+00
   185  1.8400000000000D+00  0.0000000000000D+00  0.0000000000000D+00
   186  1.8500000000000D+00  0.0000000000000D+00  0.0000000000000D+00
   187  1.8600000000000D+00  0.0000000000000D+00  0.0000000000000D+00
   188  1.8700000000000D+00  0.0000000000000D+00  0.0000000000000D+00
   189  1.8800000000000D+00  0.0000000000000D+00  0.0000000000000D+00
   190  1.8900000000000D+00  0.0000000000000D+00  0.0000000000000D+00
   191  1.9000000000000D+00  0.0000000000000D+00  0.0000000000000D+00
   192  1.9100000000000D+00  0.0000000000000D+00  0.0000000000000D+00
   193  1.9200000000000D+00  0.0000000000000D+00  0.0000000000000D+00
   194  1.9300000000000D+00  0.0000000000000D+00  0.0000000000000D+00
   195  1.9400000000000D+00  0.0000000000000D+00  0.0000000000000D+00
   196  1.9500000000000D+00  0.0000000000000D+00  0.0000000000000D+00
   197  1.9600000000000D+00  0.0000000000000D+00  0.0000000000000D+00
   198  1.9700000000000D+00  0.0000000000000D+00  0.0000000000000D+00
   199  1.9800000000000D+00  0.0000000000000D+00  0.0000000000000D+00
   200  1.9900000000000D+00  0.0000000000000D+00  0.0000000000000D+00
   201  2.0000000000000D+00  0.0000000000000D+00  0.0000000000000D+00
   202  2.0100000000000D+00  0.0000000000000D+00  0.0000000000000D+00
   203  2.0200000000000D+00  0.0000000000000D+00  0.0000000000000D+00
   204  2.0300000000000D+00  0.0000000000000D+00  0.0000000000000D+00
   205  2.0400000000000D+00  0.0000000000000D+00  0.0000000000000D+00
   206  2.0500000000000D+00  0.0000000000000D+00  0.0000000000000D+00
   207  2.0600000000000D+00  0.0000000000000D+00  0.0000000000000D+00
   208  2.0700000000000D+00  0.0000000000000D+00  0.0000000000000D+00
   209  2.0800000000000D+00  0.0000000000000D+00  0.0000000000000D+00
   210  2.0900000000000D+00  0.0000000000000D+00  0.0000000000000D+00
   211  2.1000000000000D+00  0.0000000000000D+00  0.0000000000000D+00
   212  2.1100000000000D+00  0.0000000000000D+00  0.0000000000000D+00
   213  2.1200000000000D+00  0.0000000000000D+00  0.0000000000000D+00
   214  2.1300000000000D+00  0.0000000000000D+00  0.0000000000000D+00
   215  2.1400000000000D+00  0.0000000000000D+00  0.0000000000000D+00
   216  2.1500000000000D+00  0.0000000000000D+00  0.0000000000000D+00
   217  2.1600000000000D+00  0.0000000000000D+00  0.0000000000000D+00
   218  2.1700000000000D+00  0.0000000000000D+00  0.0000000000000D+00
   219  2.1800000000000D+00  0.0000000000000D+00  0.0000000000000D+00
   220  2.1900000000000D+00  0.0000000000000D+00  0.0000000000000D+00
   221  2.2000000000000D+00  0.0000000000000D+00  0.0000000000000D+00
   222  2.2100000000000D+00  0.0000000000000D+00  0.0000000000000D+00
   223  2.2200000000000D+00  0.0000000000000D+00  0.0000000000000D+00
   224  2.2300000000000D+00  0.0000000000000D+00  0.0000000000000D+00
   225  2.2400000000000D+00  0.0000000000000D+00  0.0000000000000D+00
   226  2.2500000000000D+00  0.0000000000000D+00  0.0000000000000D+00
   227  2.2600000000000D+00  0.0000000000000D+00  0.0000000000000D+00
   228  2.2700000000000D+00  0.0000000000000D+00  0.0000000000000D+00
   229  2.2800000000000D+00  0.0000000000000D+00  0.0000000000000D+00
   230  2.2900000000000D+00  0.0000000000000D+00  0.0000000000000D+00
   231  2.3000000000000D+00  0.0000000000000D+00  0.0000000000000D+00
   232  2.3100000000000D+00  0.0000000000000D+00  0.0000000000000D+00
   233  2.3200000000000D+00  0.0000000000000D+00  0.0000000000000D+00
   234  2.3300000000000D+00  0.0000000000000D+00  0.0000000000000D+00
   235  2.3400000000000D+00  0.0000000000000D+00  0.0000000000000D+00
   236  2.3500000000000D+00  0.0000000000000D+00  0.0000000000000D+00
   237  2.3600000000000D+00  0.0000000000000D+00  0.0000000000000D+00
   238  2.3700000000000D+00  0.0000000000000D+00  0.0000000000000D+00
   239  2.3800000000000D+00  0.0000000000000D+00  0.0000000000000D+00
   240  2.3900000000000D+00  0.0000000000000D+00  0.0000000000000D+00
   241  2.4000000000000D+00  0.0000000000000D+00  0.0000000000000D+00
   242  2.4100000000000D+00  0.0000000000000D+00  0.0000000000000D+00
   243  2.4200000000000D+00  0.0000000000000D+00  0.0000000000000D+00
   244  2.4300000000000D+00  0.0000000000000D+00  0.0000000000000D+00
   245  2.4400000000000D+00  0.0000000000000D+00  0.0000000000000D+00
   246  2.4500000000000D+00  0.0000000000000D+00  0.0000000000000D+00
   247  2.4600000000000D+00  0.0000000000000D+00  0.0000000000000D+00
   248  2.4700000000000D+00  0.0000000000000D+00  0.0000000000000D+00
   249  2.4800000000000D+00  0.0000000000000D+00  0.0000000000000D+00
   250  2.4900000000000D+00  0.0000000000000D+00  0.0000000000000D+00
   251  2.5000000000000D+00  0.0000000000000D+00  0.0000000000000D+00
   252  2.5100000000000D+00  0.0000000000000D+00  0.0000000000000D+00
   253  2.5200000000000D+00  0.0000000000000D+00  0.0000000000000D+00
   254  2.5300000000000D+00  0.0000000000000D+00  0.0000000000000D+00
   255  2.5400000000000D+00  0.0000000000000D+00  0.0000000000000D+00
   256  2.5500000000000D+00  0.0000000000000D+00  0.0000000000000D+00
   257  2.5600000000000D+00  0.0000000000000D+00  0.0000000000000D+00
   258  2.5700000000000D+00  0.0000000000000D+00  0.0000000000000D+00
   259  2.5800000000000D+00  0.0000000000000D+00  0.0000000000000D+00
   260  2.5900000000000D+00  0.0000000000000D+00  0.0000000000000D+00
   261  2.6000000000000D+00  0.0000000000000D+00  0.0000000000000D+00
   262  2.6100000000000D+00  0.0000000000000D+00  0.0000000000000D+00
   263  2.6200000000000D+00  0.0000000000000D+00  0.0000000000000D+00
   264  2.6300000000000D+00  0.0000000000000D+00  0.0000000000000D+00
   265  2.6400000000000D+00  0.0000000000000D+00  0.0000000000000D+00
   266  2.6500000000000D+00  0.0000000000000D+00  0.0000000000000D+00
   267  2.6600000000000D+00  0.0000000000000D+00  0.0000000000000D+00
   268  2.6700000000000D+00  0.0000000000000D+00  0.0000000000000D+00
   269  2.6800000000000D+00  0.0000000000000D+00  0.0000000000000D+00
   270  2.6900000000000D+00  0.0000000000000D+00  0.0000000000000D+00
   271  2.7000000000000D+00  0.0000000000000D+00  0.0000000000000D+00
   272  2.7100000000000D+00  0.0000000000000D+00  0.0000000000000D+00
   273  2.7200000000000D+00  0.0000000000000D+00  0.0000000000000D+00
   274  2.7300000000000D+00  0.0000000000000D+00  0.0000000000000D+00
   275  2.7400000000000D+00  0.0000000000000D+00  0.0000000000000D+00
   276  2.7500000000000D+00  0.0000000000000D+00  0.0000000000000D+00
   277  2.7600000000000D+00  0.0000000000000D+00  0.0000000000000D+00
   278  2.7700000000000D+00  0.0000000000000D+00  0.0000000000000D+00
   279  2.7800000000000D+00  0.0000000000000D+00  0.0000000000000D+00
   280  2.7900000000000D+00  0.0000000000000D+00  0.0000000000000D+00
   281  2.8000000000000D+00  0.0000000000000D+00  0.0000000000000D+00
   282  2.8100000000000D+00  0.0000000000000D+00  0.0000000000000D+00
   283  2.8200000000000D+00  0.0000000000000D+00  0.0000000000000D+00
   284  2.8300000000000D+00  0.0000000000000D+00  0.0000000000000D+00
   285  2.8400000000000D+00  0.0000000000000D+00  0.0000000000000D+00
   286  2.8500000000000D+00  0.0000000000000D+00  0.0000000000000D+00
   287  2.8600000000000D+00  0.0000000000000D+00  0.0000000000000D+00
   288  2.8700000000000D+00  0.0000000000000D+00  0.0000000000000D+00
   289  2.8800000000000D+00  0.0000000000000D+00  0.0000000000000D+00
   290  2.8900000000000D+00  0.0000000000000D+00  0.0000000000000D+00
   291  2.9000000000000D+00  0.0000000000000D+00  0.0000000000000D+00
   292  2.9100000000000D+00  0.0000000000000D+00  0.0000000000000D+00
   293  2.9200000000000D+00  0.0000000000000D+00  0.0000000000000D+00
   294  2.9300000000000D+00  0.0000000000000D+00  0.0000000000000D+00
   295  2.9400000000000D+00  0.0000000000000D+00  0.0000000000000D+00
   296  2.9500000000000D+00  0.0000000000000D+00  0.0000000000000D+00
   297  2.9600000000000D+00  0.0000000000000D+00  0.0000000000000D+00
   298  2.9700000000000D+00  0.0000000000000D+00  0.0000000000000D+00
   299  2.9800000000000D+00  0.0000000000000D+00  0.0000000000000D+00
   300  2.9900000000000D+00  0.0000000000000D+00  0.0000000000000D+00
   301  3.0000000000000D+00  0.0000000000000D+00  0.0000000000000D+00
   302  3.0100000000000D+00  0.0000000000000D+00  0.0000000000000D+00
   303  3.0200000000000D+00  0.0000000000000D+00  0.0000000000000D+00
   304  3.0300000000000D+00  0.0000000000000D+00  0.0000000000000D+00
   305  3.0400000000000D+00  0.0000000000000D+00  0.0000000000000D+00
   306  3.0500000000000D+00  0.0000000000000D+00  0.0000000000000D+00
   307  3.0600000000000D+00  0.0000000000000D+00  0.0000000000000D+00
   308  3.0700000000000D+00  0.0000000000000D+00  0.0000000000000D+00
   309  3.0800000000000D+00  0.0000000000000D+00  0.0000000000000D+00
   310  3.0900000000000D+00  0.0000000000000D+00  0.0000000000000D+00
   311  3.1000000000000D+00  0.0000000000000D+00  0.0000000000000D+00
   312  3.1100000000000D+00  0.0000000000000D+00  0.0000000000000D+00
   313  3.1200000000000D+00  0.0000000000000D+00  0.0000000000000D+00
   314  3.1300000000000D+00  0.0000000000000D+00  0.0000000000000D+00
   315  3.1400000000000D+00  0.0000000000000D+00  0.0000000000000D+00
   316  3.1500000000000D+00  0.0000000000000D+00  0.0000000000000D+00
   317  3.1600000000000D+00  0.0000000000000D+00  0.0000000000000D+00
   318  3.1700000000000D+00  0.0000000000000D+00  0.0000000000000D+00
   319  3.1800000000000D+00  0.0000000000000D+00  0.0000000000000D+00
   320  3.1900000000000D+00  0.0000000000000D+00  0.0000000000000D+00
   321  3.2000000000000D+00  0.0000000000000D+00  0.0000000000000D+00
   322  3.2100000000000D+00  0.0000000000000D+00  0.0000000000000D+00
   323  3.2200000000000D+00  0.0000000000000D+00  0.0000000000000D+00
   324  3.2300000000000D+00  0.0000000000000D+00  0.0000000000000D+00
   325  3.2400000000000D+00  0.0000000000000D+00  0.0000000000000D+00
   326  3.2500000000000D+00  0.0000000000000D+00  0.0000000000000D+00
   327  3.2600000000000D+00  0.0000000000000D+00  0.0000000000000D+00
   328  3.2700000000000D+00  0.0000000000000D+00  0.0000000000000D+00
   329  3.2800000000000D+00  0.0000000000000D+00  0.0000000000000D+00
   330  3.2900000000000D+00  0.0000000000000D+00  0.0000000000000D+00
   331  3.3000000000000D+00  0.0000000000000D+00  0.0000000000000D+00
   332  3.3100000000000D+00  0.0000000000000D+00  0.0000000000000D+00
   333  3.3200000000000D+00  0.0000000000000D+00  0.0000000000000D+00
   334  3.3300000000000D+00  0.0000000000000D+00  0.0000000000000D+00
   335  3.3400000000000D+00  0.0000000000000D+00  0.0000000000000D+00
   336  3.3500000000000D+00  0.0000000000000D+00  0.0000000000000D+00
   337  3.3600000000000D+00  0.0000000000000D+00  0.0000000000000D+00
   338  3.3700000000000D+00  0.0000000000000D+00  0.0000000000000D+00
   339  3.3800000000000D+00  0.0000000000000D+00  0.0000000000000D+00
   340  3.3900000000000D+00  0.0000000000000D+00  0.0000000000000D+00
   341  3.4000000000000D+00  0.0000000000000D+00  0.0000000000000D+00
   342  3.4100000000000D+00  0.0000000000000D+00  0.0000000000000D+00
   343  3.4200000000000D+00  0.0000000000000D+00  0.0000000000000D+00
   344  3.4300000000000D+00  0.0000000000000D+00  0.0000000000000D+00
   345  3.4400000000000D+00  0.0000000000000D+00  0.0000000000000D+00
   346  3.4500000000000D+00  0.0000000000000D+00  0.0000000000000D+00
   347  3.4600000000000D+00  0.0000000000000D+00  0.0000000000000D+00
   348  3.4700000000000D+00  0.0000000000000D+00  0.0000000000000D+00
   349  3.4800000000000D+00  0.0000000000000D+00  0.0000000000000D+00
   350  3.4900000000000D+00  0.0000000000000D+00  0.0000000000000D+00
   351  3.5000000000000D+00  0.0000000000000D+00  0.0000000000000D+00
   352  3.5100000000000D+00  0.0000000000000D+00  0.0000000000000D+00
   353  3.5200000000000D+00  0.0000000000000D+00  0.0000000000000D+00
   354  3.5300000000000D+00  0.0000000000000D+00  0.0000000000000D+00
   355  3.5400000000000D+00  0.0000000000000D+00  0.0000000000000D+00
   356  3.5500000000000D+00  0.0000000000000D+00  0.0000000000000D+00
   357  3.5600000000000D+00  0.0000000000000D+00  0.0000000000000D+00
   358  3.5700000000000D+00  0.0000000000000D+00  0.0000000000000D+00
   359  3.5800000000000D+00  0.0000000000000D+00  0.0000000000000D+00
   360  3.5900000000000D+00  0.0000000000000D+00  0.0000000000000D+00
   361  3.6000000000000D+00  0.0000000000000D+00  0.0000000000000D+00
   362  3.6100000000000D+00  0.0000000000000D+00  0.0000000000000D+00
   363  3.6200000000000D+00  0.0000000000000D+00  0.0000000000000D+00
   364  3.6300000000000D+00  0.0000000000000D+00  0.0000000000000D+00
   365  3.6400000000000D+00  0.0000000000000D+00  0.0000000000000D+00
   366  3.6500000000000D+00  0.0000000000000D+00  0.0000000000000D+00
   367  3.6600000000000D+00  0.0000000000000D+00  0.0000000000000D+00
   368  3.6700000000000D+00  0.0000000000000D+00  0.0000000000000D+00
   369  3.6800000000000D+00  0.0000000000000D+00  0.0000000000000D+00
   370  3.6900000000000D+00  0.0000000000000D+00  0.0000000000000D+00
   371  3.7000000000000D+00  0.0000000000000D+00  0.0000000000000D+00
   372  3.7100000000000D+00  0.0000000000000D+00  0.0000000000000D+00
   373  3.7200000000000D+00  0.0000000000000D+00  0.0000000000000D+00
   374  3.7300000000000D+00  0.0000000000000D+00  0.0000000000000D+00
   375  3.7400000000000D+00  0.0000000000000D+00  0.0000000000000D+00
   376  3.7500000000000D+00  0.0000000000000D+00  0.0000000000000D+00
   377  3.7600000000000D+00  0.0000000000000D+00  0.0000000000000D+00
   378  3.7700000000000D+00  0.0000000000000D+00  0.0000000000000D+00
   379  3.7800000000000D+00  0.0000000000000D+00  0.0000000000000D+00
   380  3.7900000000000D+00  0.0000000000000D+00  0.0000000000000D+00
   381  3.8000000000000D+00  0.0000000000000D+00  0.0000000000000D+00
   382  3.8100000000000D+00  0.0000000000000D+00  0.0000000000000D+00
   383  3.8200000000000D+00  0.0000000000000D+00  0.0000000000000D+00
   384  3.8300000000000D+00  0.0000000000000D+00  0.0000000000000D+00
   385  3.8400000000000D+00  0.0000000000000D+00  0.0000000000000D+00
   386  3.8500000000000D+00  0.0000000000000D+00  0.0000000000000D+00
   387  3.8600000000000D+00  0.0000000000000D+00  0.0000000000000D+00
   388  3.8700000000000D+00  0.0000000000000D+00  0.0000000000000D+00
   389  3.8800000000000D+00  0.0000000000000D+00  0.0000000000000D+00
   390  3.8900000000000D+00  0.0000000000000D+00  0.0000000000000D+00
   391  3.9000000000000D+00  0.0000000000000D+00  0.0000000000000D+00
   392  3.9100000000000D+00  0.0000000000000D+00  0.0000000000000D+00
   393  3.9200000000000D+00  0.0000000000000D+00  0.0000000000000D+00
   394  3.9300000000000D+00  0.0000000000000D+00  0.0000000000000D+00
   395  3.9400000000000D+00  0.0000000000000D+00  0.0000000000000D+00
   396  3.9500000000000D+00  0.0000000000000D+00  0.0000000000000D+00
   397  3.9600000000000D+00  0.0000000000000D+00  0.0000000000000D+00
   398  3.9700000000000D+00  0.0000000000000D+00  0.0000000000000D+00
   399  3.9800000000000D+00  0.0000000000000D+00  0.0000000000000D+00
   400  3.9900000000000D+00  0.0000000000000D+00  0.0000000000000D+00
   401  4.0000000000000D+00  0.0000000000000D+00  0.0000000000000D+00
   402  4.0100000000000D+00  0.0000000000000D+00  0.0000000000000D+00
   403  4.0200000000000D+00  0.0000000000000D+00  0.0000000000000D+00
   404  4.0300000000000D+00  0.0000000000000D+00  0.0000000000000D+00
   405  4.0400000000000D+00  0.0000000000000D+00  0.0000000000000D+00
   406  4.0500000000000D+00  0.0000000000000D+00  0.0000000000000D+00
   407  4.0600000000000D+00  0.0000000000000D+00  0.0000000000000D+00
   408  4.0700000000000D+00  0.0000000000000D+00  0.0000000000000D+00
   409  4.0800000000000D+00  0.0000000000000D+00  0.0000000000000D+00
   410  4.0900000000000D+00  0.0000000000000D+00  0.0000000000000D+00
   411  4.1000000000000D+00  0.0000000000000D+00  0.0000000000000D+00
   412  4.1100000000000D+00  0.0000000000000D+00  0.0000000000000D+00
   413  4.1200000000000D+00  0.0000000000000D+00  0.0000000000000D+00
   414  4.1300000000000D+00  0.0000000000000D+00  0.0000000000000D+00
   415  4.1400000000000D+00  0.0000000000000D+00  0.0000000000000D+00
   416  4.1500000000000D+00  0.0000000000000D+00  0.0000000000000D+00
   417  4.1600000000000D+00  0.0000000000000D+00  0.0000000000000D+00
   418  4.1700000000000D+00  0.0000000000000D+00  0.0000000000000D+00
   419  4.1800000000000D+00  0.0000000000000D+00  0.0000000000000D+00
   420  4.1900000000000D+00  0.0000000000000D+00  0.0000000000000D+00
   421  4.2000000000000D+00  0.0000000000000D+00  0.0000000000000D+00
   422  4.2100000000000D+00  0.0000000000000D+00  0.0000000000000D+00