Ga    ONCVPSP-3.3.0  r_core=   1.85767   1.81388   2.62545
     31.0000      3.0000      220408    zatom,zion,pspd
     8       2   2     4   600     0    pspcod,pspxc,lmax,lloc,mmax,r2well
  5.99000000  0.00000000  0.00000000    rchrg fchrg qchrg
     2     2     2     0     0    nproj
     1     1           extension_switch
   0                         6.3956794968535D+00  6.6495731617073D-01
     1  0.0000000000000D+00  1.5104473227723D-11 -3.1368851960423D-11
     2  1.0000000000000D-02  2.5708144926010D-02 -1.1490823523507D-02
     3  2.0000000000000D-02  5.1425471255428D-02 -2.3003144836923D-02
     4  3.0000000000000D-02  7.7161020931593D-02 -3.4558196030419D-02
     5  4.0000000000000D-02  1.0292355775328D-01 -4.6176679368254D-02
     6  5.0000000000000D-02  1.2872143023746D-01 -5.7878506301691D-02
     7  6.0000000000000D-02  1.5456243679353D-01 -6.9682541170778D-02
     8  7.0000000000000D-02  1.8045369396142D-01 -8.1606351120846D-02
     9  8.0000000000000D-02  2.0640150845131D-01 -9.3665963728248D-02
    10  9.0000000000000D-02  2.3241125370340D-01 -1.0587563379064D-01
    11  1.0000000000000D-01  2.5848725166407D-01 -1.1824762069064D-01
    12  1.1000000000000D-01  2.8463266044874D-01 -1.3079197768774D-01
    13  1.2000000000000D-01  3.1084936853248D-01 -1.4351635443313D-01
    14  1.3000000000000D-01  3.3713789607705D-01 -1.5642581393377D-01
    15  1.4000000000000D-01  3.6349730396741D-01 -1.6952266511907D-01
    16  1.5000000000000D-01  3.8992511109216D-01 -1.8280631208297D-01
    17  1.6000000000000D-01  4.1641722036143D-01 -1.9627312098895D-01
    18  1.7000000000000D-01  4.4296785391172D-01 -2.0991630553439D-01
    19  1.8000000000000D-01  4.6956949790103D-01 -2.2372583177482D-01
    20  1.9000000000000D-01  4.9621285724969D-01 -2.3768834300847D-01
    21  2.0000000000000D-01  5.2288682063165D-01 -2.5178710531710D-01
    22  2.1000000000000D-01  5.4957843596959D-01 -2.6600197425147D-01
    23  2.2000000000000D-01  5.7627289663343D-01 -2.8030938303876D-01
    24  2.3000000000000D-01  6.0295353848794D-01 -2.9468235257655D-01
    25  2.4000000000000D-01  6.2960184787899D-01 -3.0909052336199D-01
    26  2.5000000000000D-01  6.5619748059283D-01 -3.2350020938930D-01
    27  2.6000000000000D-01  6.8271829176526D-01 -3.3787447393029D-01
    28  2.7000000000000D-01  7.0914037666198D-01 -3.5217322699582D-01
    29  2.8000000000000D-01  7.3543812219440D-01 -3.6635334415873D-01
    30  2.9000000000000D-01  7.6158426897923D-01 -3.8036880630163D-01
    31  3.0000000000000D-01  7.8754998369519D-01 -3.9417085973950D-01
    32  3.1000000000000D-01  8.1330494143571D-01 -4.0770819605301D-01
    33  3.2000000000000D-01  8.3881741770336D-01 -4.2092715085898D-01
    34  3.3000000000000D-01  8.6405438964058D-01 -4.3377192063747D-01
    35  3.4000000000000D-01  8.8898164604130D-01 -4.4618479663162D-01
    36  3.5000000000000D-01  9.1356390564057D-01 -4.5810641473797D-01
    37  3.6000000000000D-01  9.3776494313394D-01 -4.6947602021048D-01
    38  3.7000000000000D-01  9.6154772233568D-01 -4.8023174591359D-01
    39  3.8000000000000D-01  9.8487453584475D-01 -4.9031090277656D-01
    40  3.9000000000000D-01  1.0077071505507D+00 -4.9965028102476D-01
    41  4.0000000000000D-01  1.0300069582774D+00 -5.0818646069434D-01
    42  4.1000000000000D-01  1.0517351308334D+00 -5.1585612987452D-01
    43  4.2000000000000D-01  1.0728527787087D+00 -5.2259640906597D-01
    44  4.3000000000000D-01  1.0933211126375D+00 -5.2834517999762D-01
    45  4.4000000000000D-01  1.1131016072248D+00 -5.3304141720538D-01
    46  4.5000000000000D-01  1.1321561658211D+00 -5.3662552064557D-01
    47  4.6000000000000D-01  1.1504472858178D+00 -5.3903964759514D-01
    48  4.7000000000000D-01  1.1679382235303D+00 -5.4022804207724D-01
    49  4.8000000000000D-01  1.1845931578305D+00 -5.4013736004799D-01
    50  4.9000000000000D-01  1.2003773516958D+00 -5.3871698858584D-01
    51  5.0000000000000D-01  1.2152573108452D+00 -5.3591935733916D-01
    52  5.1000000000000D-01  1.2292009386441D+00 -5.3170024051317D-01
    53  5.2000000000000D-01  1.2421776864762D+00 -5.2601904770895D-01
    54  5.3000000000000D-01  1.2541586987963D+00 -5.1883910197185D-01
    55  5.4000000000000D-01  1.2651169521048D+00 -5.1012790345562D-01
    56  5.5000000000000D-01  1.2750273871105D+00 -4.9985737717164D-01
    57  5.6000000000000D-01  1.2838670333784D+00 -4.8800410335907D-01
    58  5.7000000000000D-01  1.2916151257979D+00 -4.7454952908988D-01
    59  5.8000000000000D-01  1.2982532122427D+00 -4.5948015980877D-01
    60  5.9000000000000D-01  1.3037652518377D+00 -4.4278772959865D-01
    61  6.0000000000000D-01  1.3081377032939D+00 -4.2446934906358D-01
    62  6.1000000000000D-01  1.3113596028220D+00 -4.0452762982789D-01
    63  6.2000000000000D-01  1.3134226311849D+00 -3.8297078476162D-01
    64  6.3000000000000D-01  1.3143211695079D+00 -3.5981270316218D-01
    65  6.4000000000000D-01  1.3140523435170D+00 -3.3507300024490D-01
    66  6.5000000000000D-01  1.3126160559408D+00 -3.0877704042286D-01
    67  6.6000000000000D-01  1.3100150068650D+00 -2.8095593398909D-01
    68  6.7000000000000D-01  1.3062547018980D+00 -2.5164650694849D-01
    69  6.8000000000000D-01  1.3013434480630D+00 -2.2089124388348D-01
    70  6.9000000000000D-01  1.2952923373995D+00 -1.8873820387781D-01
    71  7.0000000000000D-01  1.2881152183203D+00 -1.5524090966224D-01
    72  7.1000000000000D-01  1.2798286548348D+00 -1.2045821028563D-01
    73  7.2000000000000D-01  1.2704518738134D+00 -8.4454117755456D-02
    74  7.3000000000000D-01  1.2600067005298D+00 -4.7297618229565D-02
    75  7.4000000000000D-01  1.2485174827842D+00 -9.0624584777208D-03
    76  7.5000000000000D-01  1.2360110039666D+00  3.0173091535585D-02
    77  7.6000000000000D-01  1.2225163854827D+00  7.0326498964925D-02
    78  7.7000000000000D-01  1.2080649790203D+00  1.1131125018747D-01
    79  7.8000000000000D-01  1.1926902491889D+00  1.5303715346813D-01
    80  7.9000000000000D-01  1.1764276471189D+00  1.9541066084475D-01
    81  8.0000000000000D-01  1.1593144756539D+00  2.3833520778090D-01
    82  8.1000000000000D-01  1.1413897468172D+00  2.8171156903605D-01
    83  8.2000000000000D-01  1.1226940322753D+00  3.2543822910629D-01
    84  8.3000000000000D-01  1.1032693075591D+00  3.6941176550554D-01
    85  8.4000000000000D-01  1.0831587908386D+00  4.1352724307945D-01
    86  8.5000000000000D-01  1.0624067770761D+00  4.5767861747759D-01
    87  8.6000000000000D-01  1.0410584684101D+00  5.0175914585237D-01
    88  8.7000000000000D-01  1.0191598016394D+00  5.4566180280453D-01
    89  8.8000000000000D-01  9.9675727369850D-01  5.8927969955925D-01
    90  8.9000000000000D-01  9.7389776602007D-01  6.3250650433006D-01
    91  9.0000000000000D-01  9.5062836869139D-01  6.7523686181231D-01
    92  9.1000000000000D-01  9.2699620531050D-01  7.1736680974358D-01
    93  9.2000000000000D-01  9.0304825944359D-01  7.5879419047512D-01
    94  9.3000000000000D-01  8.7883120357679D-01  7.9941905551639D-01
    95  9.4000000000000D-01  8.5439123144092D-01  8.3914406104314D-01
    96  9.5000000000000D-01  8.2977389456815D-01  8.7787485240046D-01
    97  9.6000000000000D-01  8.0502394391651D-01  9.1552043568063D-01
    98  9.7000000000000D-01  7.8018517736798D-01  9.5199353451934D-01
    99  9.8000000000000D-01  7.5530029387332D-01  9.8721093032341D-01
   100  9.9000000000000D-01  7.3041075497862D-01  1.0210937842247D+00
   101  1.0000000000000D+00  7.0555665442631D-01  1.0535679391452D+00
   102  1.0100000000000D+00  6.8077659647756D-01  1.0845642004587D+00
   103  1.0200000000000D+00  6.5610758355247D-01  1.1140185938412D+00
   104  1.0300000000000D+00  6.3158491373247D-01  1.1418725990175D+00
   105  1.0400000000000D+00  6.0724208861254D-01  1.1680733582335D+00
   106  1.0500000000000D+00  5.8311073193081D-01  1.1925738584153D+00
   107  1.0600000000000D+00  5.5922051934324D-01  1.2153330861073D+00
   108  1.0700000000000D+00  5.3559911964669D-01  1.2363161544221D+00
   109  1.0800000000000D+00  5.1227214768661D-01  1.2554944013840D+00
   110  1.0900000000000D+00  4.8926312912632D-01  1.2728454591760D+00
   111  1.1000000000000D+00  4.6659347717731D-01  1.2883532939758D+00
   112  1.1100000000000D+00  4.4428248133065D-01  1.3020082161929D+00
   113  1.1200000000000D+00  4.2234730805461D-01  1.3138068610907D+00
   114  1.1300000000000D+00  4.0080301336681D-01  1.3237521399018D+00
   115  1.1400000000000D+00  3.7966256711209D-01  1.3318531617165D+00
   116  1.1500000000000D+00  3.5893688871733D-01  1.3381251265634D+00
   117  1.1600000000000D+00  3.3863489412572D-01  1.3425891902530D+00
   118  1.1700000000000D+00  3.1876355356465D-01  1.3452723016654D+00
   119  1.1800000000000D+00  2.9932795972626D-01  1.3462070133378D+00
   120  1.1900000000000D+00  2.8033140589094D-01  1.3454312663155D+00
   121  1.2000000000000D+00  2.6177547346777D-01  1.3429881503637D+00
   122  1.2100000000000D+00  2.4366012838951D-01  1.3389256407222D+00
   123  1.2200000000000D+00  2.2598382573066D-01  1.3332963127453D+00
   124  1.2300000000000D+00  2.0874362188902D-01  1.3261570358405D+00
   125  1.2400000000000D+00  1.9193529364272D-01  1.3175686481867D+00
   126  1.2500000000000D+00  1.7555346334120D-01  1.3075956138430D+00
   127  1.2600000000000D+00  1.5959172947159D-01  1.2963056639079D+00
   128  1.2700000000000D+00  1.4404280182538D-01  1.2837694234275D+00
   129  1.2800000000000D+00  1.2889864045824D-01  1.2700600258401D+00
   130  1.2900000000000D+00  1.1415059763139D-01  1.2552527167656D+00
   131  1.3000000000000D+00  9.9789561917964D-02  1.2394244489622D+00
   132  1.3100000000000D+00  8.5806103644007D-02  1.2226534703219D+00
   133  1.3200000000000D+00  7.2190620855168D-02  1.2050189067472D+00
   134  1.3300000000000D+00  5.8933484988662D-02  1.1866003417695D+00
   135  1.3400000000000D+00  4.6025185451690D-02  1.1674773947553D+00
   136  1.3500000000000D+00  3.3456472350123D-02  1.1477292994626D+00
   137  1.3600000000000D+00  2.1218496571812D-02  1.1274344847875D+00
   138  1.3700000000000D+00  9.3029465362831D-03  1.1066701593538D+00
   139  1.3800000000000D+00 -2.2978190915987D-03  1.0855119016152D+00
   140  1.3900000000000D+00 -1.3590643414406D-02  1.0640332571292D+00
   141  1.4000000000000D+00 -2.4581448584145D-02  1.0423053443748D+00
   142  1.4100000000000D+00 -3.5275119006457D-02  1.0203964707002D+00
   143  1.4200000000000D+00 -4.5675390932921D-02  9.9837175962719D-01
   144  1.4300000000000D+00 -5.5784748901265D-02  9.7629279071953D-01
   145  1.4400000000000D+00 -6.5604329525567D-02  9.5421725331521D-01
   146  1.4500000000000D+00 -7.5133832846698D-02  9.3219861483430D-01
   147  1.4600000000000D+00 -8.4371441714158D-02  9.1028580490010D-01
   148  1.4700000000000D+00 -9.3313749298489D-02  8.8852291576255D-01
   149  1.4800000000000D+00 -1.0195569497875D-01  8.6694891980208D-01
   150  1.4900000000000D+00 -1.1029050876057D-01  8.4559740471838D-01
   151  1.5000000000000D+00 -1.1830966413804D-01  8.2449632650257D-01
   152  1.5100000000000D+00 -1.2600283962853D-01  8.0366778095038D-01
   153  1.5200000000000D+00 -1.3335788863209D-01  7.8312779327138D-01
   154  1.5300000000000D+00 -1.4036081777731D-01  7.6288612641401D-01
   155  1.5400000000000D+00 -1.4699577333105D-01  7.4294610750327D-01
   156  1.5500000000000D+00 -1.5324503560694D-01  7.2330447253513D-01
   157  1.5600000000000D+00 -1.5908902054807D-01  7.0395122530639D-01
   158  1.5700000000000D+00 -1.6450629109566D-01  6.8486953320809D-01
   159  1.5800000000000D+00 -1.6947356629058D-01  6.6603557046459D-01
   160  1.5900000000000D+00 -1.7396576443061D-01  6.4741857696396D-01
   161  1.6000000000000D+00 -1.7795601238563D-01  6.2898066115449D-01
   162  1.6100000000000D+00 -1.8141563618004D-01  6.1067637175945D-01
   163  1.6200000000000D+00 -1.8431434080371D-01  5.9245376779398D-01
   164  1.6300000000000D+00 -1.8662037382516D-01  5.7425534790545D-01
   165  1.6400000000000D+00 -1.8830075414975D-01  5.5601912333025D-01
   166  1.6500000000000D+00 -1.8932153636099D-01  5.3767997327954D-01
   167  1.6600000000000D+00 -1.8964790369486D-01  5.1916955690847D-01
   168  1.6700000000000D+00 -1.8924429687992D-01  5.0041644293145D-01
   169  1.6800000000000D+00 -1.8807457416597D-01  4.8134655802877D-01
   170  1.6900000000000D+00 -1.8610214727467D-01  4.6188340128444D-01
   171  1.7000000000000D+00 -1.8329012689626D-01  4.4194834925510D-01
   172  1.7100000000000D+00 -1.7960146385171D-01  4.2146093271382D-01
   173  1.7200000000000D+00 -1.7499908846884D-01  4.0033911433351D-01
   174  1.7300000000000D+00 -1.6944604705028D-01  3.7849956144403D-01
   175  1.7400000000000D+00 -1.6290563418267D-01  3.5585791128037D-01
   176  1.7500000000000D+00 -1.5534152059284D-01  3.3232902811451D-01
   177  1.7600000000000D+00 -1.4671787508386D-01  3.0782724924081D-01
   178  1.7700000000000D+00 -1.3699948064127D-01  2.8226662000249D-01
   179  1.7800000000000D+00 -1.2615184300377D-01  2.5556111433526D-01
   180  1.7900000000000D+00 -1.1414129214261D-01  2.2762484174789D-01
   181  1.8000000000000D+00 -1.0084181545143D-01  1.9820312023052D-01
   182  1.8100000000000D+00 -8.6435382905201D-02  1.6759844758150D-01
   183  1.8200000000000D+00 -7.1429291368181D-02  1.3670648620536D-01
   184  1.8300000000000D+00 -5.4553103216420D-02  1.0318474068554D-01
   185  1.8400000000000D+00 -3.3753133197527D-02  6.3252835520605D-02
   186  1.8500000000000D+00 -1.2062564355066D-02  2.2416046338463D-02
   187  1.8600000000000D+00  1.8690743921020D-03 -3.5741488890587D-03
   188  1.8700000000000D+00  3.5923263681107D-03 -6.7368698036024D-03
   189  1.8800000000000D+00 -6.3074038852850D-06  1.1884721782386D-05
   190  1.8900000000000D+00 -9.5132765860252D-04  1.7897770977281D-03
   191  1.9000000000000D+00 -2.9217586099174D-04  5.4917413756505D-04
   192  1.9100000000000D+00  1.1372094319942D-04 -2.1608769705102D-04
   193  1.9200000000000D+00  8.0532983423837D-05 -1.5295175539360D-04
   194  1.9300000000000D+00 -1.7842444021786D-07  5.0392295900254D-07
   195  1.9400000000000D+00 -2.4157177962463D-07  6.8226956941164D-07
   196  1.9500000000000D+00  0.0000000000000D+00  0.0000000000000D+00
   197  1.9600000000000D+00  0.0000000000000D+00  0.0000000000000D+00
   198  1.9700000000000D+00  0.0000000000000D+00  0.0000000000000D+00
   199  1.9800000000000D+00  0.0000000000000D+00  0.0000000000000D+00
   200  1.9900000000000D+00  0.0000000000000D+00  0.0000000000000D+00
   201  2.0000000000000D+00  0.0000000000000D+00  0.0000000000000D+00
   202  2.0100000000000D+00  0.0000000000000D+00  0.0000000000000D+00
   203  2.0200000000000D+00  0.0000000000000D+00  0.0000000000000D+00
   204  2.0300000000000D+00  0.0000000000000D+00  0.0000000000000D+00
   205  2.0400000000000D+00  0.0000000000000D+00  0.0000000000000D+00
   206  2.0500000000000D+00  0.0000000000000D+00  0.0000000000000D+00
   207  2.0600000000000D+00  0.0000000000000D+00  0.0000000000000D+00
   208  2.0700000000000D+00  0.0000000000000D+00  0.0000000000000D+00
   209  2.0800000000000D+00  0.0000000000000D+00  0.0000000000000D+00
   210  2.0900000000000D+00  0.0000000000000D+00  0.0000000000000D+00
   211  2.1000000000000D+00  0.0000000000000D+00  0.0000000000000D+00
   212  2.1100000000000D+00  0.0000000000000D+00  0.0000000000000D+00
   213  2.1200000000000D+00  0.0000000000000D+00  0.0000000000000D+00
   214  2.1300000000000D+00  0.0000000000000D+00  0.0000000000000D+00
   215  2.1400000000000D+00  0.0000000000000D+00  0.0000000000000D+00
   216  2.1500000000000D+00  0.0000000000000D+00  0.0000000000000D+00
   217  2.1600000000000D+00  0.0000000000000D+00  0.0000000000000D+00
   218  2.1700000000000D+00  0.0000000000000D+00  0.0000000000000D+00
   219  2.1800000000000D+00  0.0000000000000D+00  0.0000000000000D+00
   220  2.1900000000000D+00  0.0000000000000D+00  0.0000000000000D+00
   221  2.2000000000000D+00  0.0000000000000D+00  0.0000000000000D+00
   222  2.2100000000000D+00  0.0000000000000D+00  0.0000000000000D+00
   223  2.2200000000000D+00  0.0000000000000D+00  0.0000000000000D+00
   224  2.2300000000000D+00  0.0000000000000D+00  0.0000000000000D+00
   225  2.2400000000000D+00  0.0000000000000D+00  0.0000000000000D+00
   226  2.2500000000000D+00  0.0000000000000D+00  0.0000000000000D+00
   227  2.2600000000000D+00  0.0000000000000D+00  0.0000000000000D+00
   228  2.2700000000000D+00  0.0000000000000D+00  0.0000000000000D+00
   229  2.2800000000000D+00  0.0000000000000D+00  0.0000000000000D+00
   230  2.2900000000000D+00  0.0000000000000D+00  0.0000000000000D+00
   231  2.3000000000000D+00  0.0000000000000D+00  0.0000000000000D+00
   232  2.3100000000000D+00  0.0000000000000D+00  0.0000000000000D+00
   233  2.3200000000000D+00  0.0000000000000D+00  0.0000000000000D+00
   234  2.3300000000000D+00  0.0000000000000D+00  0.0000000000000D+00
   235  2.3400000000000D+00  0.0000000000000D+00  0.0000000000000D+00
   236  2.3500000000000D+00  0.0000000000000D+00  0.0000000000000D+00
   237  2.3600000000000D+00  0.0000000000000D+00  0.0000000000000D+00
   238  2.3700000000000D+00  0.0000000000000D+00  0.0000000000000D+00
   239  2.3800000000000D+00  0.0000000000000D+00  0.0000000000000D+00
   240  2.3900000000000D+00  0.0000000000000D+00  0.0000000000000D+00
   241  2.4000000000000D+00  0.0000000000000D+00  0.0000000000000D+00
   242  2.4100000000000D+00  0.0000000000000D+00  0.0000000000000D+00
   243  2.4200000000000D+00  0.0000000000000D+00  0.0000000000000D+00
   244  2.4300000000000D+00  0.0000000000000D+00  0.0000000000000D+00
   245  2.4400000000000D+00  0.0000000000000D+00  0.0000000000000D+00
   246  2.4500000000000D+00  0.0000000000000D+00  0.0000000000000D+00
   247  2.4600000000000D+00  0.0000000000000D+00  0.0000000000000D+00
   248  2.4700000000000D+00  0.0000000000000D+00  0.0000000000000D+00
   249  2.4800000000000D+00  0.0000000000000D+00  0.0000000000000D+00
   250  2.4900000000000D+00  0.0000000000000D+00  0.0000000000000D+00
   251  2.5000000000000D+00  0.0000000000000D+00  0.0000000000000D+00
   252  2.5100000000000D+00  0.0000000000000D+00  0.0000000000000D+00
   253  2.5200000000000D+00  0.0000000000000D+00  0.0000000000000D+00
   254  2.5300000000000D+00  0.0000000000000D+00  0.0000000000000D+00
   255  2.5400000000000D+00  0.0000000000000D+00  0.0000000000000D+00
   256  2.5500000000000D+00  0.0000000000000D+00  0.0000000000000D+00
   257  2.5600000000000D+00  0.0000000000000D+00  0.0000000000000D+00
   258  2.5700000000000D+00  0.0000000000000D+00  0.0000000000000D+00
   259  2.5800000000000D+00  0.0000000000000D+00  0.0000000000000D+00
   260  2.5900000000000D+00  0.0000000000000D+00  0.0000000000000D+00
   261  2.6000000000000D+00  0.0000000000000D+00  0.0000000000000D+00
   262  2.6100000000000D+00  0.0000000000000D+00  0.0000000000000D+00
   263  2.6200000000000D+00  0.0000000000000D+00  0.0000000000000D+00
   264  2.6300000000000D+00  0.0000000000000D+00  0.0000000000000D+00
   265  2.6400000000000D+00  0.0000000000000D+00  0.0000000000000D+00
   266  2.6500000000000D+00  0.0000000000000D+00  0.0000000000000D+00
   267  2.6600000000000D+00  0.0000000000000D+00  0.0000000000000D+00
   268  2.6700000000000D+00  0.0000000000000D+00  0.0000000000000D+00
   269  2.6800000000000D+00  0.0000000000000D+00  0.0000000000000D+00
   270  2.6900000000000D+00  0.0000000000000D+00  0.0000000000000D+00
   271  2.7000000000000D+00  0.0000000000000D+00  0.0000000000000D+00
   272  2.7100000000000D+00  0.0000000000000D+00  0.0000000000000D+00
   273  2.7200000000000D+00  0.0000000000000D+00  0.0000000000000D+00
   274  2.7300000000000D+00  0.0000000000000D+00  0.0000000000000D+00
   275  2.7400000000000D+00  0.0000000000000D+00  0.0000000000000D+00
   276  2.7500000000000D+00  0.0000000000000D+00  0.0000000000000D+00
   277  2.7600000000000D+00  0.0000000000000D+00  0.0000000000000D+00
   278  2.7700000000000D+00  0.0000000000000D+00  0.0000000000000D+00
   279  2.7800000000000D+00  0.0000000000000D+00  0.0000000000000D+00
   280  2.7900000000000D+00  0.0000000000000D+00  0.0000000000000D+00
   281  2.8000000000000D+00  0.0000000000000D+00  0.0000000000000D+00
   282  2.8100000000000D+00  0.0000000000000D+00  0.0000000000000D+00
   283  2.8200000000000D+00  0.0000000000000D+00  0.0000000000000D+00
   284  2.8300000000000D+00  0.0000000000000D+00  0.0000000000000D+00
   285  2.8400000000000D+00  0.0000000000000D+00  0.0000000000000D+00
   286  2.8500000000000D+00  0.0000000000000D+00  0.0000000000000D+00
   287  2.8600000000000D+00  0.0000000000000D+00  0.0000000000000D+00
   288  2.8700000000000D+00  0.0000000000000D+00  0.0000000000000D+00
   289  2.8800000000000D+00  0.0000000000000D+00  0.0000000000000D+00
   290  2.8900000000000D+00  0.0000000000000D+00  0.0000000000000D+00
   291  2.9000000000000D+00  0.0000000000000D+00  0.0000000000000D+00
   292  2.9100000000000D+00  0.0000000000000D+00  0.0000000000000D+00
   293  2.9200000000000D+00  0.0000000000000D+00  0.0000000000000D+00
   294  2.9300000000000D+00  0.0000000000000D+00  0.0000000000000D+00
   295  2.9400000000000D+00  0.0000000000000D+00  0.0000000000000D+00
   296  2.9500000000000D+00  0.0000000000000D+00  0.0000000000000D+00
   297  2.9600000000000D+00  0.0000000000000D+00  0.0000000000000D+00
   298  2.9700000000000D+00  0.0000000000000D+00  0.0000000000000D+00
   299  2.9800000000000D+00  0.0000000000000D+00  0.0000000000000D+00
   300  2.9900000000000D+00  0.0000000000000D+00  0.0000000000000D+00
   301  3.0000000000000D+00  0.0000000000000D+00  0.0000000000000D+00
   302  3.0100000000000D+00  0.0000000000000D+00  0.0000000000000D+00
   303  3.0200000000000D+00  0.0000000000000D+00  0.0000000000000D+00
   304  3.0300000000000D+00  0.0000000000000D+00  0.0000000000000D+00
   305  3.0400000000000D+00  0.0000000000000D+00  0.0000000000000D+00
   306  3.0500000000000D+00  0.0000000000000D+00  0.0000000000000D+00
   307  3.0600000000000D+00  0.0000000000000D+00  0.0000000000000D+00
   308  3.0700000000000D+00  0.0000000000000D+00  0.0000000000000D+00
   309  3.0800000000000D+00  0.0000000000000D+00  0.0000000000000D+00
   310  3.0900000000000D+00  0.0000000000000D+00  0.0000000000000D+00
   311  3.1000000000000D+00  0.0000000000000D+00  0.0000000000000D+00
   312  3.1100000000000D+00  0.0000000000000D+00  0.0000000000000D+00
   313  3.1200000000000D+00  0.0000000000000D+00  0.0000000000000D+00
   314  3.1300000000000D+00  0.0000000000000D+00  0.0000000000000D+00
   315  3.1400000000000D+00  0.0000000000000D+00  0.0000000000000D+00
   316  3.1500000000000D+00  0.0000000000000D+00  0.0000000000000D+00
   317  3.1600000000000D+00  0.0000000000000D+00  0.0000000000000D+00
   318  3.1700000000000D+00  0.0000000000000D+00  0.0000000000000D+00
   319  3.1800000000000D+00  0.0000000000000D+00  0.0000000000000D+00
   320  3.1900000000000D+00  0.0000000000000D+00  0.0000000000000D+00
   321  3.2000000000000D+00  0.0000000000000D+00  0.0000000000000D+00
   322  3.2100000000000D+00  0.0000000000000D+00  0.0000000000000D+00
   323  3.2200000000000D+00  0.0000000000000D+00  0.0000000000000D+00
   324  3.2300000000000D+00  0.0000000000000D+00  0.0000000000000D+00
   325  3.2400000000000D+00  0.0000000000000D+00  0.0000000000000D+00
   326  3.2500000000000D+00  0.0000000000000D+00  0.0000000000000D+00
   327  3.2600000000000D+00  0.0000000000000D+00  0.0000000000000D+00
   328  3.2700000000000D+00  0.0000000000000D+00  0.0000000000000D+00
   329  3.2800000000000D+00  0.0000000000000D+00  0.0000000000000D+00
   330  3.2900000000000D+00  0.0000000000000D+00  0.0000000000000D+00
   331  3.3000000000000D+00  0.0000000000000D+00  0.0000000000000D+00
   332  3.3100000000000D+00  0.0000000000000D+00  0.0000000000000D+00
   333  3.3200000000000D+00  0.0000000000000D+00  0.0000000000000D+00
   334  3.3300000000000D+00  0.0000000000000D+00  0.0000000000000D+00
   335  3.3400000000000D+00  0.0000000000000D+00  0.0000000000000D+00
   336  3.3500000000000D+00  0.0000000000000D+00  0.0000000000000D+00
   337  3.3600000000000D+00  0.0000000000000D+00  0.0000000000000D+00
   338  3.3700000000000D+00  0.0000000000000D+00  0.0000000000000D+00
   339  3.3800000000000D+00  0.0000000000000D+00  0.0000000000000D+00
   340  3.3900000000000D+00  0.0000000000000D+00  0.0000000000000D+00
   341  3.4000000000000D+00  0.0000000000000D+00  0.0000000000000D+00
   342  3.4100000000000D+00  0.0000000000000D+00  0.0000000000000D+00
   343  3.4200000000000D+00  0.0000000000000D+00  0.0000000000000D+00
   344  3.4300000000000D+00  0.0000000000000D+00  0.0000000000000D+00
   345  3.4400000000000D+00  0.0000000000000D+00  0.0000000000000D+00
   346  3.4500000000000D+00  0.0000000000000D+00  0.0000000000000D+00
   347  3.4600000000000D+00  0.0000000000000D+00  0.0000000000000D+00
   348  3.4700000000000D+00  0.0000000000000D+00  0.0000000000000D+00
   349  3.4800000000000D+00  0.0000000000000D+00  0.0000000000000D+00
   350  3.4900000000000D+00  0.0000000000000D+00  0.0000000000000D+00
   351  3.5000000000000D+00  0.0000000000000D+00  0.0000000000000D+00
   352  3.5100000000000D+00  0.0000000000000D+00  0.0000000000000D+00
   353  3.5200000000000D+00  0.0000000000000D+00  0.0000000000000D+00
   354  3.5300000000000D+00  0.0000000000000D+00  0.0000000000000D+00
   355  3.5400000000000D+00  0.0000000000000D+00  0.0000000000000D+00
   356  3.5500000000000D+00  0.0000000000000D+00  0.0000000000000D+00
   357  3.5600000000000D+00  0.0000000000000D+00  0.0000000000000D+00
   358  3.5700000000000D+00  0.0000000000000D+00  0.0000000000000D+00
   359  3.5800000000000D+00  0.0000000000000D+00  0.0000000000000D+00
   360  3.5900000000000D+00  0.0000000000000D+00  0.0000000000000D+00
   361  3.6000000000000D+00  0.0000000000000D+00  0.0000000000000D+00
   362  3.6100000000000D+00  0.0000000000000D+00  0.0000000000000D+00
   363  3.6200000000000D+00  0.0000000000000D+00  0.0000000000000D+00
   364  3.6300000000000D+00  0.0000000000000D+00  0.0000000000000D+00
   365  3.6400000000000D+00  0.0000000000000D+00  0.0000000000000D+00
   366  3.6500000000000D+00  0.0000000000000D+00  0.0000000000000D+00
   367  3.6600000000000D+00  0.0000000000000D+00  0.0000000000000D+00
   368  3.6700000000000D+00  0.0000000000000D+00  0.0000000000000D+00
   369  3.6800000000000D+00  0.0000000000000D+00  0.0000000000000D+00
   370  3.6900000000000D+00  0.0000000000000D+00  0.0000000000000D+00
   371  3.7000000000000D+00  0.0000000000000D+00  0.0000000000000D+00
   372  3.7100000000000D+00  0.0000000000000D+00  0.0000000000000D+00
   373  3.7200000000000D+00  0.0000000000000D+00  0.0000000000000D+00
   374  3.7300000000000D+00  0.0000000000000D+00  0.0000000000000D+00
   375  3.7400000000000D+00  0.0000000000000D+00  0.0000000000000D+00
   376  3.7500000000000D+00  0.0000000000000D+00  0.0000000000000D+00
   377  3.7600000000000D+00  0.0000000000000D+00  0.0000000000000D+00
   378  3.7700000000000D+00  0.0000000000000D+00  0.0000000000000D+00
   379  3.7800000000000D+00  0.0000000000000D+00  0.0000000000000D+00
   380  3.7900000000000D+00  0.0000000000000D+00  0.0000000000000D+00
   381  3.8000000000000D+00  0.0000000000000D+00  0.0000000000000D+00
   382  3.8100000000000D+00  0.0000000000000D+00  0.0000000000000D+00
   383  3.8200000000000D+00  0.0000000000000D+00  0.0000000000000D+00
   384  3.8300000000000D+00  0.0000000000000D+00  0.0000000000000D+00
   385  3.8400000000000D+00  0.0000000000000D+00  0.0000000000000D+00
   386  3.8500000000000D+00  0.0000000000000D+00  0.0000000000000D+00
   387  3.8600000000000D+00  0.0000000000000D+00  0.0000000000000D+00
   388  3.8700000000000D+00  0.0000000000000D+00  0.0000000000000D+00
   389  3.8800000000000D+00  0.0000000000000D+00  0.0000000000000D+00
   390  3.8900000000000D+00  0.0000000000000D+00  0.0000000000000D+00
   391  3.9000000000000D+00  0.0000000000000D+00  0.0000000000000D+00
   392  3.9100000000000D+00  0.0000000000000D+00  0.0000000000000D+00
   393  3.9200000000000D+00  0.0000000000000D+00  0.0000000000000D+00
   394  3.9300000000000D+00  0.0000000000000D+00  0.0000000000000D+00
   395  3.9400000000000D+00  0.0000000000000D+00  0.0000000000000D+00
   396  3.9500000000000D+00  0.0000000000000D+00  0.0000000000000D+00
   397  3.9600000000000D+00  0.0000000000000D+00  0.0000000000000D+00
   398  3.9700000000000D+00  0.0000000000000D+00  0.0000000000000D+00
   399  3.9800000000000D+00  0.0000000000000D+00  0.0000000000000D+00
   400  3.9900000000000D+00  0.0000000000000D+00  0.0000000000000D+00
   401  4.0000000000000D+00  0.0000000000000D+00  0.0000000000000D+00
   402  4.0100000000000D+00  0.0000000000000D+00  0.0000000000000D+00
   403  4.0200000000000D+00  0.0000000000000D+00  0.0000000000000D+00
   404  4.0300000000000D+00  0.0000000000000D+00  0.0000000000000D+00
   405  4.0400000000000D+00  0.0000000000000D+00  0.0000000000000D+00
   406  4.0500000000000D+00  0.0000000000000D+00  0.0000000000000D+00
   407  4.0600000000000D+00  0.0000000000000D+00  0.0000000000000D+00
   408  4.0700000000000D+00  0.0000000000000D+00  0.0000000000000D+00
   409  4.0800000000000D+00  0.0000000000000D+00  0.0000000000000D+00
   410  4.0900000000000D+00  0.0000000000000D+00  0.0000000000000D+00
   411  4.1000000000000D+00  0.0000000000000D+00  0.0000000000000D+00
   412  4.1100000000000D+00  0.0000000000000D+00  0.0000000000000D+00
   413  4.1200000000000D+00  0.0000000000000D+00  0.0000000000000D+00
   414  4.1300000000000D+00  0.0000000000000D+00  0.0000000000000D+00
   415  4.1400000000000D+00  0.0000000000000D+00  0.0000000000000D+00
   416  4.1500000000000D+00  0.0000000000000D+00  0.0000000000000D+00
   417  4.1600000000000D+00  0.0000000000000D+00  0.0000000000000D+00
   418  4.1700000000000D+00  0.0000000000000D+00  0.0000000000000D+00
   419  4.1800000000000D+00  0.0000000000000D+00  0.0000000000000D+00
   420  4.1900000000000D+00  0.0000000000000D+00  0.0000000000000D+00
   421  4.2000000000000D+00  0.0000000000000D+00  0.0000000000000D+00
   422  4.2100000000000D+00  0.0000000000000D+00  0.0000000000000D+00