Ga    ONCVPSP-3.3.0  r_core=   1.20912   1.31442   1.51670
     31.0000     21.0000      220408    zatom,zion,pspd
     8       2   2     4   600     0    pspcod,pspxc,lmax,lloc,mmax,r2well
  5.99000000  0.00000000  0.00000000    rchrg fchrg qchrg
     2     2     2     0     0    nproj
     1     1           extension_switch
   0                         4.9425752560456D+00 -1.2224808867171D+00
     1  0.0000000000000D+00  1.8193673234634D-09  8.2978701687608D-10
     2  1.0000000000000D-02  1.0012417349208D-01  2.2885463649800D-02
     3  2.0000000000000D-02  1.9993751152421D-01  4.5857253605234D-02
     4  3.0000000000000D-02  2.9912894272917D-01  6.9000441824123D-02
     5  4.0000000000000D-02  3.9738694962171D-01  9.2397607793965D-02
     6  5.0000000000000D-02  4.9439940930865D-01  1.1612763264562D-01
     7  6.0000000000000D-02  5.8985350940733D-01  1.4026454108816D-01
     8  7.0000000000000D-02  6.8343576207098D-01  1.6487640611790D-01
     9  8.0000000000000D-02  7.7483213720059D-01  1.9002433062470D-01
    10  9.0000000000000D-02  8.6372833369929D-01  2.1576151900206D-01
    11  1.0000000000000D-01  9.4981020503092D-01  2.4213245067687D-01
    12  1.1000000000000D-01  1.0327643524170D+00  2.6917216612622D-01
    13  1.2000000000000D-01  1.1122788957907D+00  2.9690567445945D-01
    14  1.3000000000000D-01  1.1880444291692D+00  3.2534749003353D-01
    15  1.4000000000000D-01  1.2597551634592D+00  3.5450130386007D-01
    16  1.5000000000000D-01  1.3271102559325D+00  3.8435979377488D-01
    17  1.6000000000000D-01  1.3898153217510D+00  4.1490457550006D-01
    18  1.7000000000000D-01  1.4475841190489D+00  4.4610629485826D-01
    19  1.8000000000000D-01  1.5001403952512D+00  4.7792485952378D-01
    20  1.9000000000000D-01  1.5472198785804D+00  5.1030980684070D-01
    21  2.0000000000000D-01  1.5885723951434D+00  5.4320080242882D-01
    22  2.1000000000000D-01  1.6239640886432D+00  5.7652826255839D-01
    23  2.2000000000000D-01  1.6531797166992D+00  6.1021409162767D-01
    24  2.3000000000000D-01  1.6760249950168D+00  6.4417252454581D-01
    25  2.4000000000000D-01  1.6923289582841D+00  6.7831106242808D-01
    26  2.5000000000000D-01  1.7019463047303D+00  7.1253148877047D-01
    27  2.6000000000000D-01  1.7047596897909D+00  7.4673095220364D-01
    28  2.7000000000000D-01  1.7006819333249D+00  7.8080310104614D-01
    29  2.8000000000000D-01  1.6896581043440D+00  8.1463925419775D-01
    30  2.9000000000000D-01  1.6716674472575D+00  8.4812959244457D-01
    31  3.0000000000000D-01  1.6467251142287D+00  8.8116435399579D-01
    32  3.1000000000000D-01  1.6148836693688D+00  9.1363501804214D-01
    33  3.2000000000000D-01  1.5762343321759D+00  9.4543546031937D-01
    34  3.3000000000000D-01  1.5309079298306D+00  9.7646306507468D-01
    35  3.4000000000000D-01  1.4790755306777D+00  1.0066197784657D+00
    36  3.5000000000000D-01  1.4209487344230D+00  1.0358130892625D+00
    37  3.6000000000000D-01  1.3567795982210D+00  1.0639569237620D+00
    38  3.7000000000000D-01  1.2868601818835D+00  1.0909724430499D+00
    39  3.8000000000000D-01  1.2115216998466D+00  1.1167887321375D+00
    40  3.9000000000000D-01  1.1311332722525D+00  1.1413433720484D+00
    41  4.0000000000000D-01  1.0461002724545D+00  1.1645828876027D+00
    42  4.1000000000000D-01  9.5686227339496D-01  1.1864630654303D+00
    43  4.2000000000000D-01  8.6389060055166D-01  1.2069491386120D+00
    44  4.3000000000000D-01  7.6768550443866D-01  1.2260158362709D+00
    45  4.4000000000000D-01  6.6877297090476D-01  1.2436472983898D+00
    46  4.5000000000000D-01  5.6770119262386D-01  1.2598368580933D+00
    47  4.6000000000000D-01  4.6503673014424D-01  1.2745866955651D+00
    48  4.7000000000000D-01  3.6136039558361D-01  1.2879073696559D+00
    49  4.8000000000000D-01  2.5726289645560D-01  1.2998172350458D+00
    50  4.9000000000000D-01  1.5334028112043D-01  1.3103417545201D+00
    51  5.0000000000000D-01  5.0189230909373D-02  1.3195127174953D+00
    52  5.1000000000000D-01 -5.1597752983656D-02  1.3273673773455D+00
    53  5.2000000000000D-01 -1.5143721726808D-01  1.3339475213282D+00
    54  5.3000000000000D-01 -2.4875962653198D-01  1.3392984879522D+00
    55  5.4000000000000D-01 -3.4301418175032D-01  1.3434681474790D+00
    56  5.5000000000000D-01 -4.3367353309860D-01  1.3465058618574D+00
    57  5.6000000000000D-01 -5.2023833298647D-01  1.3484614407760D+00
    58  5.7000000000000D-01 -6.0224157608039D-01  1.3493841106569D+00
    59  5.8000000000000D-01 -6.7925267463772D-01  1.3493215133054D+00
    60  5.9000000000000D-01 -7.5088121974594D-01  1.3483187505733D+00
    61  6.0000000000000D-01 -8.1678038199031D-01  1.3464174907992D+00
    62  6.1000000000000D-01 -8.7664990868904D-01  1.3436551519451D+00
    63  6.2000000000000D-01 -9.3023867903704D-01  1.3400641752886D+00
    64  6.3000000000000D-01 -9.7734678329591D-01  1.3356714022473D+00
    65  6.4000000000000D-01 -1.0178270974826D+00  1.3304975654316D+00
    66  6.5000000000000D-01 -1.0515863307409D+00  1.3245569033702D+00
    67  6.6000000000000D-01 -1.0785855287554D+00  1.3178569065347D+00
    68  6.7000000000000D-01 -1.0988400230025D+00  1.3103982003436D+00
    69  6.8000000000000D-01 -1.1124188222900D+00  1.3021745687845D+00
    70  6.9000000000000D-01 -1.1194434498754D+00  1.2931731201606D+00
    71  7.0000000000000D-01 -1.1200862362910D+00  1.2833745943011D+00
    72  7.1000000000000D-01 -1.1145680848311D+00  1.2727538083907D+00
    73  7.2000000000000D-01 -1.1031557333043D+00  1.2612802364121D+00
    74  7.3000000000000D-01 -1.0861585421374D+00  1.2489187150722D+00
    75  7.4000000000000D-01 -1.0639248450163D+00  1.2356302670543D+00
    76  7.5000000000000D-01 -1.0368379039798D+00  1.2213730305134D+00
    77  7.6000000000000D-01 -1.0053115161092D+00  1.2061032819538D+00
    78  7.7000000000000D-01 -9.6978532362340D-01  1.1897765380125D+00
    79  7.8000000000000D-01 -9.3071988321074D-01  1.1723487202627D+00
    80  7.9000000000000D-01 -8.8859155376514D-01  1.1537773659450D+00
    81  8.0000000000000D-01 -8.4388726426895D-01  1.1340228665762D+00
    82  8.1000000000000D-01 -7.9709922534590D-01  1.1130497156819D+00
    83  8.2000000000000D-01 -7.4871964896500D-01  1.0908277464530D+00
    84  8.3000000000000D-01 -6.9923554088160D-01  1.0673333399718D+00
    85  8.4000000000000D-01 -6.4912362964940D-01  1.0425505847678D+00
    86  8.5000000000000D-01 -5.9884549442701D-01  1.0164723688702D+00
    87  8.6000000000000D-01 -5.4884295135032D-01  9.8910138621006D-01
    88  8.7000000000000D-01 -4.9953375497180D-01  9.6045104018186D-01
    89  8.8000000000000D-01 -4.5130766721891D-01  9.3054622839875D-01
    90  8.9000000000000D-01 -4.0452294154494D-01  8.9942399414526D-01
    91  9.0000000000000D-01 -3.5950326449526D-01  8.6713403173101D-01
    92  9.1000000000000D-01 -3.1653519086258D-01  8.3373903485543D-01
    93  9.2000000000000D-01 -2.7586610203225D-01  7.9931487918135D-01
    94  9.3000000000000D-01 -2.3770271011285D-01  7.6395063255573D-01
    95  9.4000000000000D-01 -2.0221012311097D-01  7.2774838867411D-01
    96  9.5000000000000D-01 -1.6951147874594D-01  6.9082292246072D-01
    97  9.6000000000000D-01 -1.3968814695966D-01  6.5330116788009D-01
    98  9.7000000000000D-01 -1.1278049317872D-01  6.1532152149695D-01
    99  9.8000000000000D-01 -8.8789186877425D-02  5.7703297754941D-01
   100  9.9000000000000D-01 -6.7677032426782D-02  5.3859410277144D-01
   101  1.0000000000000D+00 -4.9371292017348D-02  5.0017186155588D-01
   102  1.0100000000000D+00 -3.3766463638090D-02  4.6194030427878D-01
   103  1.0200000000000D+00 -2.0727470701624D-02  4.2407913370063D-01
   104  1.0300000000000D+00 -1.0093214290726D-02  3.8677216620044D-01
   105  1.0400000000000D+00 -1.6804338207073D-03  3.5020570629395D-01
   106  1.0500000000000D+00  4.7121824797612D-03  3.1456685432118D-01
   107  1.0600000000000D+00  9.2996993081240D-03  2.8004176830624D-01
   108  1.0700000000000D+00  1.2306513054135D-02  2.4681390188273D-01
   109  1.0800000000000D+00  1.3961874114603D-02  2.1506224071523D-01
   110  1.0900000000000D+00  1.4495420262328D-02  1.8495956014295D-01
   111  1.1000000000000D+00  1.4132788476933D-02  1.5667072669272D-01
   112  1.1100000000000D+00  1.3091371657759D-02  1.3035106573990D-01
   113  1.1200000000000D+00  1.1576284451508D-02  1.0614481681135D-01
   114  1.1300000000000D+00  9.7766001285366D-03  8.4183697212880D-02
   115  1.1400000000000D+00  7.8619163585843D-03  6.4585593235504D-02
   116  1.1500000000000D+00  5.9793033328721D-03  4.7453396664815D-02
   117  1.1600000000000D+00  4.2506818310168D-03  3.2874002291533D-02
   118  1.1700000000000D+00  2.7712799174461D-03  2.0921473700042D-02
   119  1.1800000000000D+00  1.6051240386094D-03  1.1637485085246D-02
   120  1.1900000000000D+00  7.8213948903890D-04  5.0283750705294D-03
   121  1.2000000000000D+00  3.5400428342864D-04  1.3301875024618D-03
   122  1.2100000000000D+00  1.8238883365365D-04  4.3291363888546D-05
   123  1.2200000000000D+00  3.7231954442519D-05 -5.3124009235524D-05
   124  1.2300000000000D+00 -1.5939692700324D-05  3.3570361425879D-05
   125  1.2400000000000D+00  1.6125349596418D-06 -2.2441716516192D-06
   126  1.2500000000000D+00  2.1206994951799D-06 -3.4200248298792D-06
   127  1.2600000000000D+00 -5.5621829186671D-07 -2.5972275511487D-07
   128  1.2700000000000D+00  0.0000000000000D+00  0.0000000000000D+00
   129  1.2800000000000D+00  0.0000000000000D+00  0.0000000000000D+00
   130  1.2900000000000D+00  0.0000000000000D+00  0.0000000000000D+00
   131  1.3000000000000D+00  0.0000000000000D+00  0.0000000000000D+00
   132  1.3100000000000D+00  0.0000000000000D+00  0.0000000000000D+00
   133  1.3200000000000D+00  0.0000000000000D+00  0.0000000000000D+00
   134  1.3300000000000D+00  0.0000000000000D+00  0.0000000000000D+00
   135  1.3400000000000D+00  0.0000000000000D+00  0.0000000000000D+00
   136  1.3500000000000D+00  0.0000000000000D+00  0.0000000000000D+00
   137  1.3600000000000D+00  0.0000000000000D+00  0.0000000000000D+00
   138  1.3700000000000D+00  0.0000000000000D+00  0.0000000000000D+00
   139  1.3800000000000D+00  0.0000000000000D+00  0.0000000000000D+00
   140  1.3900000000000D+00  0.0000000000000D+00  0.0000000000000D+00
   141  1.4000000000000D+00  0.0000000000000D+00  0.0000000000000D+00
   142  1.4100000000000D+00  0.0000000000000D+00  0.0000000000000D+00
   143  1.4200000000000D+00  0.0000000000000D+00  0.0000000000000D+00
   144  1.4300000000000D+00  0.0000000000000D+00  0.0000000000000D+00
   145  1.4400000000000D+00  0.0000000000000D+00  0.0000000000000D+00
   146  1.4500000000000D+00  0.0000000000000D+00  0.0000000000000D+00
   147  1.4600000000000D+00  0.0000000000000D+00  0.0000000000000D+00
   148  1.4700000000000D+00  0.0000000000000D+00  0.0000000000000D+00
   149  1.4800000000000D+00  0.0000000000000D+00  0.0000000000000D+00
   150  1.4900000000000D+00  0.0000000000000D+00  0.0000000000000D+00
   151  1.5000000000000D+00  0.0000000000000D+00  0.0000000000000D+00
   152  1.5100000000000D+00  0.0000000000000D+00  0.0000000000000D+00
   153  1.5200000000000D+00  0.0000000000000D+00  0.0000000000000D+00
   154  1.5300000000000D+00  0.0000000000000D+00  0.0000000000000D+00
   155  1.5400000000000D+00  0.0000000000000D+00  0.0000000000000D+00
   156  1.5500000000000D+00  0.0000000000000D+00  0.0000000000000D+00
   157  1.5600000000000D+00  0.0000000000000D+00  0.0000000000000D+00
   158  1.5700000000000D+00  0.0000000000000D+00  0.0000000000000D+00
   159  1.5800000000000D+00  0.0000000000000D+00  0.0000000000000D+00
   160  1.5900000000000D+00  0.0000000000000D+00  0.0000000000000D+00
   161  1.6000000000000D+00  0.0000000000000D+00  0.0000000000000D+00
   162  1.6100000000000D+00  0.0000000000000D+00  0.0000000000000D+00
   163  1.6200000000000D+00  0.0000000000000D+00  0.0000000000000D+00
   164  1.6300000000000D+00  0.0000000000000D+00  0.0000000000000D+00
   165  1.6400000000000D+00  0.0000000000000D+00  0.0000000000000D+00
   166  1.6500000000000D+00  0.0000000000000D+00  0.0000000000000D+00
   167  1.6600000000000D+00  0.0000000000000D+00  0.0000000000000D+00
   168  1.6700000000000D+00  0.0000000000000D+00  0.0000000000000D+00
   169  1.6800000000000D+00  0.0000000000000D+00  0.0000000000000D+00
   170  1.6900000000000D+00  0.0000000000000D+00  0.0000000000000D+00
   171  1.7000000000000D+00  0.0000000000000D+00  0.0000000000000D+00
   172  1.7100000000000D+00  0.0000000000000D+00  0.0000000000000D+00
   173  1.7200000000000D+00  0.0000000000000D+00  0.0000000000000D+00
   174  1.7300000000000D+00  0.0000000000000D+00  0.0000000000000D+00
   175  1.7400000000000D+00  0.0000000000000D+00  0.0000000000000D+00
   176  1.7500000000000D+00  0.0000000000000D+00  0.0000000000000D+00
   177  1.7600000000000D+00  0.0000000000000D+00  0.0000000000000D+00
   178  1.7700000000000D+00  0.0000000000000D+00  0.0000000000000D+00
   179  1.7800000000000D+00  0.0000000000000D+00  0.0000000000000D+00
   180  1.7900000000000D+00  0.0000000000000D+00  0.0000000000000D+00
   181  1.8000000000000D+00  0.0000000000000D+00  0.0000000000000D+00
   182  1.8100000000000D+00  0.0000000000000D+00  0.0000000000000D+00
   183  1.8200000000000D+00  0.0000000000000D+00  0.0000000000000D+00
   184  1.8300000000000D+00  0.0000000000000D+00  0.0000000000000D+00
   185  1.8400000000000D+00  0.0000000000000D+00  0.0000000000000D+00
   186  1.8500000000000D+00  0.0000000000000D+00  0.0000000000000D+00
   187  1.8600000000000D+00  0.0000000000000D+00  0.0000000000000D+00
   188  1.8700000000000D+00  0.0000000000000D+00  0.0000000000000D+00
   189  1.8800000000000D+00  0.0000000000000D+00  0.0000000000000D+00
   190  1.8900000000000D+00  0.0000000000000D+00  0.0000000000000D+00
   191  1.9000000000000D+00  0.0000000000000D+00  0.0000000000000D+00
   192  1.9100000000000D+00  0.0000000000000D+00  0.0000000000000D+00
   193  1.9200000000000D+00  0.0000000000000D+00  0.0000000000000D+00
   194  1.9300000000000D+00  0.0000000000000D+00  0.0000000000000D+00
   195  1.9400000000000D+00  0.0000000000000D+00  0.0000000000000D+00
   196  1.9500000000000D+00  0.0000000000000D+00  0.0000000000000D+00
   197  1.9600000000000D+00  0.0000000000000D+00  0.0000000000000D+00
   198  1.9700000000000D+00  0.0000000000000D+00  0.0000000000000D+00
   199  1.9800000000000D+00  0.0000000000000D+00  0.0000000000000D+00
   200  1.9900000000000D+00  0.0000000000000D+00  0.0000000000000D+00
   201  2.0000000000000D+00  0.0000000000000D+00  0.0000000000000D+00
   202  2.0100000000000D+00  0.0000000000000D+00  0.0000000000000D+00
   203  2.0200000000000D+00  0.0000000000000D+00  0.0000000000000D+00
   204  2.0300000000000D+00  0.0000000000000D+00  0.0000000000000D+00
   205  2.0400000000000D+00  0.0000000000000D+00  0.0000000000000D+00
   206  2.0500000000000D+00  0.0000000000000D+00  0.0000000000000D+00
   207  2.0600000000000D+00  0.0000000000000D+00  0.0000000000000D+00
   208  2.0700000000000D+00  0.0000000000000D+00  0.0000000000000D+00
   209  2.0800000000000D+00  0.0000000000000D+00  0.0000000000000D+00
   210  2.0900000000000D+00  0.0000000000000D+00  0.0000000000000D+00
   211  2.1000000000000D+00  0.0000000000000D+00  0.0000000000000D+00
   212  2.1100000000000D+00  0.0000000000000D+00  0.0000000000000D+00
   213  2.1200000000000D+00  0.0000000000000D+00  0.0000000000000D+00
   214  2.1300000000000D+00  0.0000000000000D+00  0.0000000000000D+00
   215  2.1400000000000D+00  0.0000000000000D+00  0.0000000000000D+00
   216  2.1500000000000D+00  0.0000000000000D+00  0.0000000000000D+00
   217  2.1600000000000D+00  0.0000000000000D+00  0.0000000000000D+00
   218  2.1700000000000D+00  0.0000000000000D+00  0.0000000000000D+00
   219  2.1800000000000D+00  0.0000000000000D+00  0.0000000000000D+00
   220  2.1900000000000D+00  0.0000000000000D+00  0.0000000000000D+00
   221  2.2000000000000D+00  0.0000000000000D+00  0.0000000000000D+00
   222  2.2100000000000D+00  0.0000000000000D+00  0.0000000000000D+00
   223  2.2200000000000D+00  0.0000000000000D+00  0.0000000000000D+00
   224  2.2300000000000D+00  0.0000000000000D+00  0.0000000000000D+00
   225  2.2400000000000D+00  0.0000000000000D+00  0.0000000000000D+00
   226  2.2500000000000D+00  0.0000000000000D+00  0.0000000000000D+00
   227  2.2600000000000D+00  0.0000000000000D+00  0.0000000000000D+00
   228  2.2700000000000D+00  0.0000000000000D+00  0.0000000000000D+00
   229  2.2800000000000D+00  0.0000000000000D+00  0.0000000000000D+00
   230  2.2900000000000D+00  0.0000000000000D+00  0.0000000000000D+00
   231  2.3000000000000D+00  0.0000000000000D+00  0.0000000000000D+00
   232  2.3100000000000D+00  0.0000000000000D+00  0.0000000000000D+00
   233  2.3200000000000D+00  0.0000000000000D+00  0.0000000000000D+00
   234  2.3300000000000D+00  0.0000000000000D+00  0.0000000000000D+00
   235  2.3400000000000D+00  0.0000000000000D+00  0.0000000000000D+00
   236  2.3500000000000D+00  0.0000000000000D+00  0.0000000000000D+00
   237  2.3600000000000D+00  0.0000000000000D+00  0.0000000000000D+00
   238  2.3700000000000D+00  0.0000000000000D+00  0.0000000000000D+00
   239  2.3800000000000D+00  0.0000000000000D+00  0.0000000000000D+00
   240  2.3900000000000D+00  0.0000000000000D+00  0.0000000000000D+00
   241  2.4000000000000D+00  0.0000000000000D+00  0.0000000000000D+00
   242  2.4100000000000D+00  0.0000000000000D+00  0.0000000000000D+00
   243  2.4200000000000D+00  0.0000000000000D+00  0.0000000000000D+00
   244  2.4300000000000D+00  0.0000000000000D+00  0.0000000000000D+00
   245  2.4400000000000D+00  0.0000000000000D+00  0.0000000000000D+00
   246  2.4500000000000D+00  0.0000000000000D+00  0.0000000000000D+00
   247  2.4600000000000D+00  0.0000000000000D+00  0.0000000000000D+00
   248  2.4700000000000D+00  0.0000000000000D+00  0.0000000000000D+00
   249  2.4800000000000D+00  0.0000000000000D+00  0.0000000000000D+00
   250  2.4900000000000D+00  0.0000000000000D+00  0.0000000000000D+00
   251  2.5000000000000D+00  0.0000000000000D+00  0.0000000000000D+00
   252  2.5100000000000D+00  0.0000000000000D+00  0.0000000000000D+00
   253  2.5200000000000D+00  0.0000000000000D+00  0.0000000000000D+00
   254  2.5300000000000D+00  0.0000000000000D+00  0.0000000000000D+00
   255  2.5400000000000D+00  0.0000000000000D+00  0.0000000000000D+00
   256  2.5500000000000D+00  0.0000000000000D+00  0.0000000000000D+00
   257  2.5600000000000D+00  0.0000000000000D+00  0.0000000000000D+00
   258  2.5700000000000D+00  0.0000000000000D+00  0.0000000000000D+00
   259  2.5800000000000D+00  0.0000000000000D+00  0.0000000000000D+00
   260  2.5900000000000D+00  0.0000000000000D+00  0.0000000000000D+00
   261  2.6000000000000D+00  0.0000000000000D+00  0.0000000000000D+00
   262  2.6100000000000D+00  0.0000000000000D+00  0.0000000000000D+00
   263  2.6200000000000D+00  0.0000000000000D+00  0.0000000000000D+00
   264  2.6300000000000D+00  0.0000000000000D+00  0.0000000000000D+00
   265  2.6400000000000D+00  0.0000000000000D+00  0.0000000000000D+00
   266  2.6500000000000D+00  0.0000000000000D+00  0.0000000000000D+00
   267  2.6600000000000D+00  0.0000000000000D+00  0.0000000000000D+00
   268  2.6700000000000D+00  0.0000000000000D+00  0.0000000000000D+00
   269  2.6800000000000D+00  0.0000000000000D+00  0.0000000000000D+00
   270  2.6900000000000D+00  0.0000000000000D+00  0.0000000000000D+00
   271  2.7000000000000D+00  0.0000000000000D+00  0.0000000000000D+00
   272  2.7100000000000D+00  0.0000000000000D+00  0.0000000000000D+00
   273  2.7200000000000D+00  0.0000000000000D+00  0.0000000000000D+00
   274  2.7300000000000D+00  0.0000000000000D+00  0.0000000000000D+00
   275  2.7400000000000D+00  0.0000000000000D+00  0.0000000000000D+00
   276  2.7500000000000D+00  0.0000000000000D+00  0.0000000000000D+00
   277  2.7600000000000D+00  0.0000000000000D+00  0.0000000000000D+00
   278  2.7700000000000D+00  0.0000000000000D+00  0.0000000000000D+00
   279  2.7800000000000D+00  0.0000000000000D+00  0.0000000000000D+00
   280  2.7900000000000D+00  0.0000000000000D+00  0.0000000000000D+00
   281  2.8000000000000D+00  0.0000000000000D+00  0.0000000000000D+00
   282  2.8100000000000D+00  0.0000000000000D+00  0.0000000000000D+00
   283  2.8200000000000D+00  0.0000000000000D+00  0.0000000000000D+00
   284  2.8300000000000D+00  0.0000000000000D+00  0.0000000000000D+00
   285  2.8400000000000D+00  0.0000000000000D+00  0.0000000000000D+00
   286  2.8500000000000D+00  0.0000000000000D+00  0.0000000000000D+00
   287  2.8600000000000D+00  0.0000000000000D+00  0.0000000000000D+00
   288  2.8700000000000D+00  0.0000000000000D+00  0.0000000000000D+00
   289  2.8800000000000D+00  0.0000000000000D+00  0.0000000000000D+00
   290  2.8900000000000D+00  0.0000000000000D+00  0.0000000000000D+00
   291  2.9000000000000D+00  0.0000000000000D+00  0.0000000000000D+00
   292  2.9100000000000D+00  0.0000000000000D+00  0.0000000000000D+00
   293  2.9200000000000D+00  0.0000000000000D+00  0.0000000000000D+00
   294  2.9300000000000D+00  0.0000000000000D+00  0.0000000000000D+00
   295  2.9400000000000D+00  0.0000000000000D+00  0.0000000000000D+00
   296  2.9500000000000D+00  0.0000000000000D+00  0.0000000000000D+00
   297  2.9600000000000D+00  0.0000000000000D+00  0.0000000000000D+00
   298  2.9700000000000D+00  0.0000000000000D+00  0.0000000000000D+00
   299  2.9800000000000D+00  0.0000000000000D+00  0.0000000000000D+00
   300  2.9900000000000D+00  0.0000000000000D+00  0.0000000000000D+00
   301  3.0000000000000D+00  0.0000000000000D+00  0.0000000000000D+00
   302  3.0100000000000D+00  0.0000000000000D+00  0.0000000000000D+00
   303  3.0200000000000D+00  0.0000000000000D+00  0.0000000000000D+00
   304  3.0300000000000D+00  0.0000000000000D+00  0.0000000000000D+00
   305  3.0400000000000D+00  0.0000000000000D+00  0.0000000000000D+00
   306  3.0500000000000D+00  0.0000000000000D+00  0.0000000000000D+00
   307  3.0600000000000D+00  0.0000000000000D+00  0.0000000000000D+00
   308  3.0700000000000D+00  0.0000000000000D+00  0.0000000000000D+00
   309  3.0800000000000D+00  0.0000000000000D+00  0.0000000000000D+00
   310  3.0900000000000D+00  0.0000000000000D+00  0.0000000000000D+00
   311  3.1000000000000D+00  0.0000000000000D+00  0.0000000000000D+00
   312  3.1100000000000D+00  0.0000000000000D+00  0.0000000000000D+00
   313  3.1200000000000D+00  0.0000000000000D+00  0.0000000000000D+00
   314  3.1300000000000D+00  0.0000000000000D+00  0.0000000000000D+00
   315  3.1400000000000D+00  0.0000000000000D+00  0.0000000000000D+00
   316  3.1500000000000D+00  0.0000000000000D+00  0.0000000000000D+00
   317  3.1600000000000D+00  0.0000000000000D+00  0.0000000000000D+00
   318  3.1700000000000D+00  0.0000000000000D+00  0.0000000000000D+00
   319  3.1800000000000D+00  0.0000000000000D+00  0.0000000000000D+00
   320  3.1900000000000D+00  0.0000000000000D+00  0.0000000000000D+00
   321  3.2000000000000D+00  0.0000000000000D+00  0.0000000000000D+00
   322  3.2100000000000D+00  0.0000000000000D+00  0.0000000000000D+00
   323  3.2200000000000D+00  0.0000000000000D+00  0.0000000000000D+00
   324  3.2300000000000D+00  0.0000000000000D+00  0.0000000000000D+00
   325  3.2400000000000D+00  0.0000000000000D+00  0.0000000000000D+00
   326  3.2500000000000D+00  0.0000000000000D+00  0.0000000000000D+00
   327  3.2600000000000D+00  0.0000000000000D+00  0.0000000000000D+00
   328  3.2700000000000D+00  0.0000000000000D+00  0.0000000000000D+00
   329  3.2800000000000D+00  0.0000000000000D+00  0.0000000000000D+00
   330  3.2900000000000D+00  0.0000000000000D+00  0.0000000000000D+00
   331  3.3000000000000D+00  0.0000000000000D+00  0.0000000000000D+00
   332  3.3100000000000D+00  0.0000000000000D+00  0.0000000000000D+00
   333  3.3200000000000D+00  0.0000000000000D+00  0.0000000000000D+00
   334  3.3300000000000D+00  0.0000000000000D+00  0.0000000000000D+00
   335  3.3400000000000D+00  0.0000000000000D+00  0.0000000000000D+00
   336  3.3500000000000D+00  0.0000000000000D+00  0.0000000000000D+00
   337  3.3600000000000D+00  0.0000000000000D+00  0.0000000000000D+00
   338  3.3700000000000D+00  0.0000000000000D+00  0.0000000000000D+00
   339  3.3800000000000D+00  0.0000000000000D+00  0.0000000000000D+00
   340  3.3900000000000D+00  0.0000000000000D+00  0.0000000000000D+00
   341  3.4000000000000D+00  0.0000000000000D+00  0.0000000000000D+00
   342  3.4100000000000D+00  0.0000000000000D+00  0.0000000000000D+00
   343  3.4200000000000D+00  0.0000000000000D+00  0.0000000000000D+00
   344  3.4300000000000D+00  0.0000000000000D+00  0.0000000000000D+00
   345  3.4400000000000D+00  0.0000000000000D+00  0.0000000000000D+00
   346  3.4500000000000D+00  0.0000000000000D+00  0.0000000000000D+00
   347  3.4600000000000D+00  0.0000000000000D+00  0.0000000000000D+00
   348  3.4700000000000D+00  0.0000000000000D+00  0.0000000000000D+00
   349  3.4800000000000D+00  0.0000000000000D+00  0.0000000000000D+00
   350  3.4900000000000D+00  0.0000000000000D+00  0.0000000000000D+00
   351  3.5000000000000D+00  0.0000000000000D+00  0.0000000000000D+00
   352  3.5100000000000D+00  0.0000000000000D+00  0.0000000000000D+00
   353  3.5200000000000D+00  0.0000000000000D+00  0.0000000000000D+00
   354  3.5300000000000D+00  0.0000000000000D+00  0.0000000000000D+00
   355  3.5400000000000D+00  0.0000000000000D+00  0.0000000000000D+00
   356  3.5500000000000D+00  0.0000000000000D+00  0.0000000000000D+00
   357  3.5600000000000D+00  0.0000000000000D+00  0.0000000000000D+00
   358  3.5700000000000D+00  0.0000000000000D+00  0.0000000000000D+00
   359  3.5800000000000D+00  0.0000000000000D+00  0.0000000000000D+00
   360  3.5900000000000D+00  0.0000000000000D+00  0.0000000000000D+00
   361  3.6000000000000D+00  0.0000000000000D+00  0.0000000000000D+00
   362  3.6100000000000D+00  0.0000000000000D+00  0.0000000000000D+00
   363  3.6200000000000D+00  0.0000000000000D+00  0.0000000000000D+00
   364  3.6300000000000D+00  0.0000000000000D+00  0.0000000000000D+00
   365  3.6400000000000D+00  0.0000000000000D+00  0.0000000000000D+00
   366  3.6500000000000D+00  0.0000000000000D+00  0.0000000000000D+00
   367  3.6600000000000D+00  0.0000000000000D+00  0.0000000000000D+00
   368  3.6700000000000D+00  0.0000000000000D+00  0.0000000000000D+00
   369  3.6800000000000D+00  0.0000000000000D+00  0.0000000000000D+00
   370  3.6900000000000D+00  0.0000000000000D+00  0.0000000000000D+00
   371  3.7000000000000D+00  0.0000000000000D+00  0.0000000000000D+00
   372  3.7100000000000D+00  0.0000000000000D+00  0.0000000000000D+00
   373  3.7200000000000D+00  0.0000000000000D+00  0.0000000000000D+00
   374  3.7300000000000D+00  0.0000000000000D+00  0.0000000000000D+00
   375  3.7400000000000D+00  0.0000000000000D+00  0.0000000000000D+00
   376  3.7500000000000D+00  0.0000000000000D+00  0.0000000000000D+00
   377  3.7600000000000D+00  0.0000000000000D+00  0.0000000000000D+00
   378  3.7700000000000D+00  0.0000000000000D+00  0.0000000000000D+00
   379  3.7800000000000D+00  0.0000000000000D+00  0.0000000000000D+00
   380  3.7900000000000D+00  0.0000000000000D+00  0.0000000000000D+00
   381  3.8000000000000D+00  0.0000000000000D+00  0.0000000000000D+00
   382  3.8100000000000D+00  0.0000000000000D+00  0.0000000000000D+00
   383  3.8200000000000D+00  0.0000000000000D+00  0.0000000000000D+00
   384  3.8300000000000D+00  0.0000000000000D+00  0.0000000000000D+00
   385  3.8400000000000D+00  0.0000000000000D+00  0.0000000000000D+00
   386  3.8500000000000D+00  0.0000000000000D+00  0.0000000000000D+00
   387  3.8600000000000D+00  0.0000000000000D+00  0.0000000000000D+00
   388  3.8700000000000D+00  0.0000000000000D+00  0.0000000000000D+00
   389  3.8800000000000D+00  0.0000000000000D+00  0.0000000000000D+00
   390  3.8900000000000D+00  0.0000000000000D+00  0.0000000000000D+00
   391  3.9000000000000D+00  0.0000000000000D+00  0.0000000000000D+00
   392  3.9100000000000D+00  0.0000000000000D+00  0.0000000000000D+00
   393  3.9200000000000D+00  0.0000000000000D+00  0.0000000000000D+00
   394  3.9300000000000D+00  0.0000000000000D+00  0.0000000000000D+00
   395  3.9400000000000D+00  0.0000000000000D+00  0.0000000000000D+00
   396  3.9500000000000D+00  0.0000000000000D+00  0.0000000000000D+00
   397  3.9600000000000D+00  0.0000000000000D+00  0.0000000000000D+00
   398  3.9700000000000D+00  0.0000000000000D+00  0.0000000000000D+00
   399  3.9800000000000D+00  0.0000000000000D+00  0.0000000000000D+00
   400  3.9900000000000D+00  0.0000000000000D+00  0.0000000000000D+00
   401  4.0000000000000D+00  0.0000000000000D+00  0.0000000000000D+00
   402  4.0100000000000D+00  0.0000000000000D+00  0.0000000000000D+00
   403  4.0200000000000D+00  0.0000000000000D+00  0.0000000000000D+00
   404  4.0300000000000D+00  0.0000000000000D+00  0.0000000000000D+00
   405  4.0400000000000D+00  0.0000000000000D+00  0.0000000000000D+00
   406  4.0500000000000D+00  0.0000000000000D+00  0.0000000000000D+00
   407  4.0600000000000D+00  0.0000000000000D+00  0.0000000000000D+00
   408  4.0700000000000D+00  0.0000000000000D+00  0.0000000000000D+00
   409  4.0800000000000D+00  0.0000000000000D+00  0.0000000000000D+00
   410  4.0900000000000D+00  0.0000000000000D+00  0.0000000000000D+00
   411  4.1000000000000D+00  0.0000000000000D+00  0.0000000000000D+00
   412  4.1100000000000D+00  0.0000000000000D+00  0.0000000000000D+00
   413  4.1200000000000D+00  0.0000000000000D+00  0.0000000000000D+00
   414  4.1300000000000D+00  0.0000000000000D+00  0.0000000000000D+00
   415  4.1400000000000D+00  0.0000000000000D+00  0.0000000000000D+00
   416  4.1500000000000D+00  0.0000000000000D+00  0.0000000000000D+00
   417  4.1600000000000D+00  0.0000000000000D+00  0.0000000000000D+00
   418  4.1700000000000D+00  0.0000000000000D+00  0.0000000000000D+00
   419  4.1800000000000D+00  0.0000000000000D+00  0.0000000000000D+00
   420  4.1900000000000D+00  0.0000000000000D+00  0.0000000000000D+00
   421  4.2000000000000D+00  0.0000000000000D+00  0.0000000000000D+00
   422  4.2100000000000D+00  0.0000000000000D+00  0.0000000000000D+00