Rn    ONCVPSP-3.3.0  r_core=   2.20741   2.00650   1.80225
     86.0000     18.0000      220408    zatom,zion,pspd
     8       2   2     4   600     0    pspcod,pspxc,lmax,lloc,mmax,r2well
  5.99000000  0.00000000  0.00000000    rchrg fchrg qchrg
     2     2     2     0     0    nproj
     1     1           extension_switch
   0                         8.2837328131312D+00  1.7033733003649D+00
     1  0.0000000000000D+00  1.0311057563328D-12 -4.0481784591151D-12
     2  1.0000000000000D-02  1.1396773811434D-02  1.9093652045459D-02
     3  2.0000000000000D-02  2.2827625757459D-02  3.8107058105290D-02
     4  3.0000000000000D-02  3.4326496217725D-02  5.6960269800150D-02
     5  4.0000000000000D-02  4.5927050415353D-02  7.5573933120282D-02
     6  5.0000000000000D-02  5.7662541721798D-02  9.3869583503868D-02
     7  6.0000000000000D-02  6.9565676020791D-02  1.1176993839042D-01
     8  7.0000000000000D-02  8.1668477483190D-02  1.2919918641223D-01
     9  8.0000000000000D-02  9.4002156103566D-02  1.4608327239098D-01
    10  9.0000000000000D-02  1.0659697734800D-01  1.6235017731172D-01
    11  1.0000000000000D-01  1.1948213426086D-01  1.7793019245288D-01
    12  1.1000000000000D-01  1.3268562237642D-01  1.9275618685828D-01
    13  1.2000000000000D-01  1.4623411777855D-01  2.0676386734623D-01
    14  1.3000000000000D-01  1.6015285864905D-01  2.1989203026069D-01
    15  1.4000000000000D-01  1.7446553064171D-01  2.3208280418136D-01
    16  1.5000000000000D-01  1.8919415641541D-01  2.4328188282254D-01
    17  1.6000000000000D-01  2.0435898965494D-01  2.5343874736556D-01
    18  1.7000000000000D-01  2.1997841390341D-01  2.6250687748596D-01
    19  1.8000000000000D-01  2.3606884652404D-01  2.7044395035510D-01
    20  1.9000000000000D-01  2.5264464810285D-01  2.7721202691615D-01
    21  2.0000000000000D-01  2.6971803759634D-01  2.8277772475663D-01
    22  2.1000000000000D-01  2.8729901352008D-01  2.8711237692414D-01
    23  2.2000000000000D-01  3.0539528146534D-01  2.9019217605857D-01
    24  2.3000000000000D-01  3.2401218822051D-01  2.9199830324303D-01
    25  2.4000000000000D-01  3.4315266276337D-01  2.9251704100685D-01
    26  2.5000000000000D-01  3.6281716437823D-01  2.9173986994790D-01
    27  2.6000000000000D-01  3.8300363813883D-01  2.8966354847753D-01
    28  2.7000000000000D-01  4.0370747798366D-01  2.8629017523011D-01
    29  2.8000000000000D-01  4.2492149759508D-01  2.8162723372060D-01
    30  2.9000000000000D-01  4.4663590927732D-01  2.7568761887707D-01
    31  3.0000000000000D-01  4.6883831101044D-01  2.6848964512187D-01
    32  3.1000000000000D-01  4.9151368183877D-01  2.6005703572375D-01
    33  3.2000000000000D-01  5.1464438573235D-01  2.5041889319486D-01
    34  3.3000000000000D-01  5.3821018403857D-01  2.3960965056043D-01
    35  3.4000000000000D-01  5.6218825661883D-01  2.2766900338516D-01
    36  3.5000000000000D-01  5.8655323174202D-01  2.1464182249904D-01
    37  3.6000000000000D-01  6.1127722478130D-01  2.0057804742591D-01
    38  3.7000000000000D-01  6.3632988573589D-01  1.8553256058096D-01
    39  3.8000000000000D-01  6.6167845557223D-01  1.6956504236801D-01
    40  3.9000000000000D-01  6.8728783135191D-01  1.5273980737361D-01
    41  4.0000000000000D-01  7.1312064008491D-01  1.3512562192320D-01
    42  4.1000000000000D-01  7.3913732121786D-01  1.1679550333319D-01
    43  4.2000000000000D-01  7.6529621763674D-01  9.7826501263500D-02
    44  4.3000000000000D-01  7.9155367503356D-01  7.8299461645614D-02
    45  4.4000000000000D-01  8.1786414945482D-01  5.8298773732954D-02
    46  4.5000000000000D-01  8.4418032281902D-01  3.7912100891875D-02
    47  4.6000000000000D-01  8.7045322615831D-01  1.7230095823096D-02
    48  4.7000000000000D-01  8.9663237030806D-01 -3.6538990253091D-03
    49  4.8000000000000D-01  9.2266588373634D-01 -2.4644165022110D-02
    50  4.9000000000000D-01  9.4850065717382D-01 -4.5642933993663D-02
    51  5.0000000000000D-01  9.7408249467364D-01 -6.6550726972811D-02
    52  5.1000000000000D-01  9.9935627069978D-01 -8.7266704021722D-02
    53  5.2000000000000D-01  1.0242660928129D+00 -1.0768902403055D-01
    54  5.3000000000000D-01  1.0487554694931D+00 -1.2771521333289D-01
    55  5.4000000000000D-01  1.0727674826104D+00 -1.4724254192053D-01
    56  5.5000000000000D-01  1.0962449640283D+00 -1.6616840598558D-01
    57  5.6000000000000D-01  1.1191306757968D+00 -1.8439071546647D-01
    58  5.7000000000000D-01  1.1413674933710D+00 -2.0180828522755D-01
    59  5.8000000000000D-01  1.1628985912644D+00 -2.1832122845919D-01
    60  5.9000000000000D-01  1.1836676305286D+00 -2.3383135084775D-01
    61  6.0000000000000D-01  1.2036189474292D+00 -2.4824254403132D-01
    62  6.1000000000000D-01  1.2226977426737D+00 -2.6146117683065D-01
    63  6.2000000000000D-01  1.2408502705284D+00 -2.7339648272222D-01
    64  6.3000000000000D-01  1.2580240271535D+00 -2.8396094200530D-01
    65  6.4000000000000D-01  1.2741679374721D+00 -2.9307065710502D-01
    66  6.5000000000000D-01  1.2892325398827D+00 -3.0064571945079D-01
    67  6.6000000000000D-01  1.3031701681205D+00 -3.0661056637269D-01
    68  6.7000000000000D-01  1.3159351295708D+00 -3.1089432646940D-01
    69  6.8000000000000D-01  1.3274838793383D+00 -3.1343115191828D-01
    70  6.9000000000000D-01  1.3377751893795D+00 -3.1416053622295D-01
    71  7.0000000000000D-01  1.3467703120151D+00 -3.1302761592534D-01
    72  7.1000000000000D-01  1.3544331371460D+00 -3.0998345484779D-01
    73  7.2000000000000D-01  1.3607303425104D+00 -3.0498530947705D-01
    74  7.3000000000000D-01  1.3656315363385D+00 -2.9799687415498D-01
    75  7.4000000000000D-01  1.3691093917752D+00 -2.8898850480071D-01
    76  7.5000000000000D-01  1.3711397724693D+00 -2.7793741995626D-01
    77  7.6000000000000D-01  1.3717018487474D+00 -2.6482787802140D-01
    78  7.7000000000000D-01  1.3707782038240D+00 -2.4965132962377D-01
    79  7.8000000000000D-01  1.3683549295266D+00 -2.3240654415702D-01
    80  7.9000000000000D-01  1.3644217110504D+00 -2.1309970961235D-01
    81  8.0000000000000D-01  1.3589719002932D+00 -1.9174450492731D-01
    82  8.1000000000000D-01  1.3520025773608D+00 -1.6836214417952D-01
    83  8.2000000000000D-01  1.3435145998745D+00 -1.4298139206161D-01
    84  8.3000000000000D-01  1.3335126397555D+00 -1.1563855018707D-01
    85  8.4000000000000D-01  1.3220052072087D+00 -8.6377413894122D-02
    86  8.5000000000000D-01  1.3090046616746D+00 -5.5249199335534D-02
    87  8.6000000000000D-01  1.2945272095692D+00 -2.2312440766662D-02
    88  8.7000000000000D-01  1.2785928886823D+00  1.2367141929744D-02
    89  8.8000000000000D-01  1.2612255391565D+00  4.8716805314475D-02
    90  8.9000000000000D-01  1.2424527610251D+00  8.6656973761522D-02
    91  9.0000000000000D-01  1.2223058583393D+00  1.2610145969836D-01
    92  9.1000000000000D-01  1.2008197699711D+00  1.6695771215811D-01
    93  9.2000000000000D-01  1.1780329872348D+00  2.0912709295450D-01
    94  9.3000000000000D-01  1.1539874585236D+00  2.5250517966119D-01
    95  9.4000000000000D-01  1.1287284812156D+00  2.9698209444991D-01
    96  9.5000000000000D-01  1.1023045811562D+00  3.4244285771649D-01
    97  9.6000000000000D-01  1.0747673800798D+00  3.8876776530248D-01
    98  9.7000000000000D-01  1.0461714513869D+00  4.3583278800174D-01
    99  9.8000000000000D-01  1.0165741647432D+00  4.8350999192764D-01
   100  9.9000000000000D-01  9.8603552002068D-01  5.3166797820755D-01
   101  1.0000000000000D+00  9.5461797114718D-01  5.8017234036929D-01
   102  1.0100000000000D+00  9.2238624047752D-01  6.2888613768663D-01
   103  1.0200000000000D+00  8.8940712434663D-01  6.7767038266033D-01
   104  1.0300000000000D+00  8.5574929050386D-01  7.2638454072960D-01
   105  1.0400000000000D+00  8.2148306816888D-01  7.7488704023341D-01
   106  1.0500000000000D+00  7.8668023148552D-01  8.2303579057407D-01
   107  1.0600000000000D+00  7.5141377718247D-01  8.7068870647902D-01
   108  1.0700000000000D+00  7.1575769727995D-01  9.1770423620710D-01
   109  1.0800000000000D+00  6.7978674770832D-01  9.6394189150564D-01
   110  1.0900000000000D+00  6.4357621372632D-01  1.0092627770966D+00
   111  1.1000000000000D+00  6.0720167304598D-01  1.0535301174506D+00
   112  1.1100000000000D+00  5.7073875758505D-01  1.0966097785985D+00
   113  1.1200000000000D+00  5.3426291477996D-01  1.1383707827300D+00
   114  1.1300000000000D+00  4.9784916939829D-01  1.1786858133431D+00
   115  1.1400000000000D+00  4.6157188679141D-01  1.2174317087312D+00
   116  1.1500000000000D+00  4.2550453852662D-01  1.2544899416255D+00
   117  1.1600000000000D+00  3.8971947133309D-01  1.2897470828526D+00
   118  1.1700000000000D+00  3.5428768028403D-01  1.3230952469258D+00
   119  1.1800000000000D+00  3.1927858712058D-01  1.3544325175605D+00
   120  1.1900000000000D+00  2.8475982461098D-01  1.3836633511527D+00
   121  1.2000000000000D+00  2.5079702780942D-01  1.4106989563694D+00
   122  1.2100000000000D+00  2.1745363305201D-01  1.4354576480902D+00
   123  1.2200000000000D+00  1.8479068549667D-01  1.4578651740393D+00
   124  1.2300000000000D+00  1.5286665598857D-01  1.4778550125317D+00
   125  1.2400000000000D+00  1.2173726797769D-01  1.4953686399283D+00
   126  1.2500000000000D+00  9.1455335174139D-02  1.5103557665134D+00
   127  1.2600000000000D+00  6.2070610612199D-02  1.5227745395583D+00
   128  1.2700000000000D+00  3.3629647702489D-02  1.5325917125986D+00
   129  1.2800000000000D+00  6.1756738095940D-03  1.5397827800712D+00
   130  1.2900000000000D+00 -2.0251523111558D-02  1.5443320764695D+00
   131  1.3000000000000D+00 -4.5615694418728D-02  1.5462328395462D+00
   132  1.3100000000000D+00 -6.9884216851084D-02  1.5454872371560D+00
   133  1.3200000000000D+00 -9.3028164396074D-02  1.5421063573622D+00
   134  1.3300000000000D+00 -1.1502236575200D-01  1.5361101618639D+00
   135  1.3400000000000D+00 -1.3584544717644D-01  1.5275274027796D+00
   136  1.3500000000000D+00 -1.5547986055144D-01  1.5163955029342D+00
   137  1.3600000000000D+00 -1.7391189667028D-01  1.5027604002414D+00
   138  1.3700000000000D+00 -1.9113168368546D-01  1.4866763566045D+00
   139  1.3800000000000D+00 -2.0713317078762D-01  1.4682057320942D+00
   140  1.3900000000000D+00 -2.2191409731148D-01  1.4474187254626D+00
   141  1.4000000000000D+00 -2.3547594733702D-01  1.4243930817502D+00
   142  1.4100000000000D+00 -2.4782389016287D-01  1.3992137684865D+00
   143  1.4200000000000D+00 -2.5896670690419D-01  1.3719726216777D+00
   144  1.4300000000000D+00 -2.6891670356697D-01  1.3427679630264D+00
   145  1.4400000000000D+00 -2.7768961113883D-01  1.3117041902411D+00
   146  1.4500000000000D+00 -2.8530447302717D-01  1.2788913418350D+00
   147  1.4600000000000D+00 -2.9178352054373D-01  1.2444446386254D+00
   148  1.4700000000000D+00 -2.9715203692305D-01  1.2084840036745D+00
   149  1.4800000000000D+00 -3.0143821054571D-01  1.1711335628230D+00
   150  1.4900000000000D+00 -3.0467297809480D-01  1.1325211280488D+00
   151  1.5000000000000D+00 -3.0688985826654D-01  1.0927776657125D+00
   152  1.5100000000000D+00 -3.0812477693973D-01  1.0520367522409D+00
   153  1.5200000000000D+00 -3.0841588444974D-01  1.0104340193676D+00
   154  1.5300000000000D+00 -3.0780336592488D-01  9.6810659155476D-01
   155  1.5400000000000D+00 -3.0632924543918D-01  9.2519251788825D-01
   156  1.5500000000000D+00 -3.0403718491395D-01  8.8183020102166D-01
   157  1.5600000000000D+00 -3.0097227862601D-01  8.3815782555914D-01
   158  1.5700000000000D+00 -2.9718084423949D-01  7.9431278846057D-01
   159  1.5800000000000D+00 -2.9271021125913D-01  7.5043113377001D-01
   160  1.5900000000000D+00 -2.8760850784181D-01  7.0664699435798D-01
   161  1.6000000000000D+00 -2.8192444683238D-01  6.6309204269765D-01
   162  1.6100000000000D+00 -2.7570711201416D-01  6.1989495355102D-01
   163  1.6200000000000D+00 -2.6900574534880D-01  5.7718088017684D-01
   164  1.6300000000000D+00 -2.6186953625723D-01  5.3507094708886D-01
   165  1.6400000000000D+00 -2.5434741360491D-01  4.9368176058677D-01
   166  1.6500000000000D+00 -2.4648784147226D-01  4.5312494008559D-01
   167  1.6600000000000D+00 -2.3833861926803D-01  4.1350667114690D-01
   168  1.6700000000000D+00 -2.2994668726406D-01  3.7492728313057D-01
   169  1.6800000000000D+00 -2.2135793799418D-01  3.3748085202927D-01
   170  1.6900000000000D+00 -2.1261703458360D-01  3.0125483128548D-01
   171  1.7000000000000D+00 -2.0376723630991D-01  2.6632971073203D-01
   172  1.7100000000000D+00 -1.9485023245965D-01  2.3277870638248D-01
   173  1.7200000000000D+00 -1.8590598459689D-01  2.0066748066540D-01
   174  1.7300000000000D+00 -1.7697257833609D-01  1.7005389585816D-01
   175  1.7400000000000D+00 -1.6808608433017D-01  1.4098779905957D-01
   176  1.7500000000000D+00 -1.5928042970957D-01  1.1351084185364D-01
   177  1.7600000000000D+00 -1.5058728331602D-01  8.7656345430763D-02
   178  1.7700000000000D+00 -1.4203593388853D-01  6.3449141106231D-02
   179  1.7800000000000D+00 -1.3365323659011D-01  4.0905630223394D-02
   180  1.7900000000000D+00 -1.2546348781716D-01  2.0033619634188D-02
   181  1.8000000000000D+00 -1.1748827877748D-01  8.3205393884879D-04
   182  1.8100000000000D+00 -1.0974662568518D-01 -1.6708307419321D-02
   183  1.8200000000000D+00 -1.0225505243777D-01 -3.2604365859965D-02
   184  1.8300000000000D+00 -9.5027716757272D-02 -4.6880114889701D-02
   185  1.8400000000000D+00 -8.8076625234708D-02 -5.9565788338394D-02
   186  1.8500000000000D+00 -8.1411706478247D-02 -7.0697501395569D-02
   187  1.8600000000000D+00 -7.5040809057343D-02 -8.0317173027569D-02
   188  1.8700000000000D+00 -6.8969758741883D-02 -8.8472252710551D-02
   189  1.8800000000000D+00 -6.3202451039948D-02 -9.5215318050231D-02
   190  1.8900000000000D+00 -5.7740918032311D-02 -1.0060377773745D-01
   191  1.9000000000000D+00 -5.2585419368589D-02 -1.0469949510955D-01
   192  1.9100000000000D+00 -4.7734534174202D-02 -1.0756841520755D-01
   193  1.9200000000000D+00 -4.3185260882242D-02 -1.0928017107762D-01
   194  1.9300000000000D+00 -3.8933122488324D-02 -1.0990767706768D-01
   195  1.9400000000000D+00 -3.4972277150878D-02 -1.0952670970429D-01
   196  1.9500000000000D+00 -3.1295633189466D-02 -1.0821547884384D-01
   197  1.9600000000000D+00 -2.7894967835558D-02 -1.0605419109752D-01
   198  1.9700000000000D+00 -2.4761049173434D-02 -1.0312460733017D-01
   199  1.9800000000000D+00 -2.1883760373803D-02 -9.9509596702582D-02
   200  1.9900000000000D+00 -1.9252225662140D-02 -9.5292689236810D-02
   201  2.0000000000000D+00 -1.6854937283501D-02 -9.0557628787304D-02
   202  2.0100000000000D+00 -1.4679882645066D-02 -8.5387929108034D-02
   203  2.0200000000000D+00 -1.2714671088528D-02 -7.9866434492594D-02
   204  2.0300000000000D+00 -1.0946659541390D-02 -7.4074887227179D-02
   205  2.0400000000000D+00 -9.3630761238409D-03 -6.8093504675708D-02
   206  2.0500000000000D+00 -7.9511416876169D-03 -6.2000565877530D-02
   207  2.0600000000000D+00 -6.6981876151189D-03 -5.5872012790574D-02
   208  2.0700000000000D+00 -5.5917703210954D-03 -4.9781064684079D-02
   209  2.0800000000000D+00 -4.6197811257383D-03 -4.3797849680884D-02
   210  2.0900000000000D+00 -3.7705508691215D-03 -3.7989055285950D-02
   211  2.1000000000000D+00 -3.0329497579651D-03 -3.2417596367667D-02
   212  2.1100000000000D+00 -2.3964799940470D-03 -2.7142307879956D-02
   213  2.1200000000000D+00 -1.8513628402187D-03 -2.2217657347975D-02
   214  2.1300000000000D+00 -1.3886204893205D-03 -1.7693584715120D-02
   215  2.1400000000000D+00 -1.0002394679478D-03 -1.3619272336414D-02
   216  2.1500000000000D+00 -6.7881956973010D-04 -1.0024746871212D-02
   217  2.1600000000000D+00 -4.1833182215547D-04 -6.9330417733584D-03
   218  2.1700000000000D+00 -2.1363623174006D-04 -4.3916448623568D-03
   219  2.1800000000000D+00 -6.0497047157129D-05 -2.4660805779045D-03
   220  2.1900000000000D+00  4.6819117269006D-05 -1.1972310040353D-03
   221  2.2000000000000D+00  1.0398050176005D-04 -4.6805079912174D-04
   222  2.2100000000000D+00  1.0873286823493D-04 -1.2220101301339D-04
   223  2.2200000000000D+00  6.8298986924329D-05  1.8959404988810D-06
   224  2.2300000000000D+00  1.7035504194020D-05  9.1014356618849D-06
   225  2.2400000000000D+00 -1.1546954208698D-05 -8.6970051283915D-06
   226  2.2500000000000D+00 -1.2686959569373D-05 -1.2269455129804D-05
   227  2.2600000000000D+00 -9.5240455601641D-07 -1.0610478322167D-06
   228  2.2700000000000D+00  2.9621055625210D-06  1.2445807486245D-06
   229  2.2800000000000D+00  2.3309871140848D-06  1.1747029438667D-06
   230  2.2900000000000D+00 -9.2512276802888D-08  1.5203240019964D-07
   231  2.3000000000000D+00 -3.2147622382608D-07  5.2830611897632D-07
   232  2.3100000000000D+00 -1.7381883382956D-07  2.8564959614297D-07
   233  2.3200000000000D+00  0.0000000000000D+00  0.0000000000000D+00
   234  2.3300000000000D+00  0.0000000000000D+00  0.0000000000000D+00
   235  2.3400000000000D+00  0.0000000000000D+00  0.0000000000000D+00
   236  2.3500000000000D+00  0.0000000000000D+00  0.0000000000000D+00
   237  2.3600000000000D+00  0.0000000000000D+00  0.0000000000000D+00
   238  2.3700000000000D+00  0.0000000000000D+00  0.0000000000000D+00
   239  2.3800000000000D+00  0.0000000000000D+00  0.0000000000000D+00
   240  2.3900000000000D+00  0.0000000000000D+00  0.0000000000000D+00
   241  2.4000000000000D+00  0.0000000000000D+00  0.0000000000000D+00
   242  2.4100000000000D+00  0.0000000000000D+00  0.0000000000000D+00
   243  2.4200000000000D+00  0.0000000000000D+00  0.0000000000000D+00
   244  2.4300000000000D+00  0.0000000000000D+00  0.0000000000000D+00
   245  2.4400000000000D+00  0.0000000000000D+00  0.0000000000000D+00
   246  2.4500000000000D+00  0.0000000000000D+00  0.0000000000000D+00
   247  2.4600000000000D+00  0.0000000000000D+00  0.0000000000000D+00
   248  2.4700000000000D+00  0.0000000000000D+00  0.0000000000000D+00
   249  2.4800000000000D+00  0.0000000000000D+00  0.0000000000000D+00
   250  2.4900000000000D+00  0.0000000000000D+00  0.0000000000000D+00
   251  2.5000000000000D+00  0.0000000000000D+00  0.0000000000000D+00
   252  2.5100000000000D+00  0.0000000000000D+00  0.0000000000000D+00
   253  2.5200000000000D+00  0.0000000000000D+00  0.0000000000000D+00
   254  2.5300000000000D+00  0.0000000000000D+00  0.0000000000000D+00
   255  2.5400000000000D+00  0.0000000000000D+00  0.0000000000000D+00
   256  2.5500000000000D+00  0.0000000000000D+00  0.0000000000000D+00
   257  2.5600000000000D+00  0.0000000000000D+00  0.0000000000000D+00
   258  2.5700000000000D+00  0.0000000000000D+00  0.0000000000000D+00
   259  2.5800000000000D+00  0.0000000000000D+00  0.0000000000000D+00
   260  2.5900000000000D+00  0.0000000000000D+00  0.0000000000000D+00
   261  2.6000000000000D+00  0.0000000000000D+00  0.0000000000000D+00
   262  2.6100000000000D+00  0.0000000000000D+00  0.0000000000000D+00
   263  2.6200000000000D+00  0.0000000000000D+00  0.0000000000000D+00
   264  2.6300000000000D+00  0.0000000000000D+00  0.0000000000000D+00
   265  2.6400000000000D+00  0.0000000000000D+00  0.0000000000000D+00
   266  2.6500000000000D+00  0.0000000000000D+00  0.0000000000000D+00
   267  2.6600000000000D+00  0.0000000000000D+00  0.0000000000000D+00
   268  2.6700000000000D+00  0.0000000000000D+00  0.0000000000000D+00
   269  2.6800000000000D+00  0.0000000000000D+00  0.0000000000000D+00
   270  2.6900000000000D+00  0.0000000000000D+00  0.0000000000000D+00
   271  2.7000000000000D+00  0.0000000000000D+00  0.0000000000000D+00
   272  2.7100000000000D+00  0.0000000000000D+00  0.0000000000000D+00
   273  2.7200000000000D+00  0.0000000000000D+00  0.0000000000000D+00
   274  2.7300000000000D+00  0.0000000000000D+00  0.0000000000000D+00
   275  2.7400000000000D+00  0.0000000000000D+00  0.0000000000000D+00
   276  2.7500000000000D+00  0.0000000000000D+00  0.0000000000000D+00
   277  2.7600000000000D+00  0.0000000000000D+00  0.0000000000000D+00
   278  2.7700000000000D+00  0.0000000000000D+00  0.0000000000000D+00
   279  2.7800000000000D+00  0.0000000000000D+00  0.0000000000000D+00
   280  2.7900000000000D+00  0.0000000000000D+00  0.0000000000000D+00
   281  2.8000000000000D+00  0.0000000000000D+00  0.0000000000000D+00
   282  2.8100000000000D+00  0.0000000000000D+00  0.0000000000000D+00
   283  2.8200000000000D+00  0.0000000000000D+00  0.0000000000000D+00
   284  2.8300000000000D+00  0.0000000000000D+00  0.0000000000000D+00
   285  2.8400000000000D+00  0.0000000000000D+00  0.0000000000000D+00
   286  2.8500000000000D+00  0.0000000000000D+00  0.0000000000000D+00
   287  2.8600000000000D+00  0.0000000000000D+00  0.0000000000000D+00
   288  2.8700000000000D+00  0.0000000000000D+00  0.0000000000000D+00
   289  2.8800000000000D+00  0.0000000000000D+00  0.0000000000000D+00
   290  2.8900000000000D+00  0.0000000000000D+00  0.0000000000000D+00
   291  2.9000000000000D+00  0.0000000000000D+00  0.0000000000000D+00
   292  2.9100000000000D+00  0.0000000000000D+00  0.0000000000000D+00
   293  2.9200000000000D+00  0.0000000000000D+00  0.0000000000000D+00
   294  2.9300000000000D+00  0.0000000000000D+00  0.0000000000000D+00
   295  2.9400000000000D+00  0.0000000000000D+00  0.0000000000000D+00
   296  2.9500000000000D+00  0.0000000000000D+00  0.0000000000000D+00
   297  2.9600000000000D+00  0.0000000000000D+00  0.0000000000000D+00
   298  2.9700000000000D+00  0.0000000000000D+00  0.0000000000000D+00
   299  2.9800000000000D+00  0.0000000000000D+00  0.0000000000000D+00
   300  2.9900000000000D+00  0.0000000000000D+00  0.0000000000000D+00
   301  3.0000000000000D+00  0.0000000000000D+00  0.0000000000000D+00
   302  3.0100000000000D+00  0.0000000000000D+00  0.0000000000000D+00
   303  3.0200000000000D+00  0.0000000000000D+00  0.0000000000000D+00
   304  3.0300000000000D+00  0.0000000000000D+00  0.0000000000000D+00
   305  3.0400000000000D+00  0.0000000000000D+00  0.0000000000000D+00
   306  3.0500000000000D+00  0.0000000000000D+00  0.0000000000000D+00
   307  3.0600000000000D+00  0.0000000000000D+00  0.0000000000000D+00
   308  3.0700000000000D+00  0.0000000000000D+00  0.0000000000000D+00
   309  3.0800000000000D+00  0.0000000000000D+00  0.0000000000000D+00
   310  3.0900000000000D+00  0.0000000000000D+00  0.0000000000000D+00
   311  3.1000000000000D+00  0.0000000000000D+00  0.0000000000000D+00
   312  3.1100000000000D+00  0.0000000000000D+00  0.0000000000000D+00
   313  3.1200000000000D+00  0.0000000000000D+00  0.0000000000000D+00
   314  3.1300000000000D+00  0.0000000000000D+00  0.0000000000000D+00
   315  3.1400000000000D+00  0.0000000000000D+00  0.0000000000000D+00
   316  3.1500000000000D+00  0.0000000000000D+00  0.0000000000000D+00
   317  3.1600000000000D+00  0.0000000000000D+00  0.0000000000000D+00
   318  3.1700000000000D+00  0.0000000000000D+00  0.0000000000000D+00
   319  3.1800000000000D+00  0.0000000000000D+00  0.0000000000000D+00
   320  3.1900000000000D+00  0.0000000000000D+00  0.0000000000000D+00
   321  3.2000000000000D+00  0.0000000000000D+00  0.0000000000000D+00
   322  3.2100000000000D+00  0.0000000000000D+00  0.0000000000000D+00
   323  3.2200000000000D+00  0.0000000000000D+00  0.0000000000000D+00
   324  3.2300000000000D+00  0.0000000000000D+00  0.0000000000000D+00
   325  3.2400000000000D+00  0.0000000000000D+00  0.0000000000000D+00
   326  3.2500000000000D+00  0.0000000000000D+00  0.0000000000000D+00
   327  3.2600000000000D+00  0.0000000000000D+00  0.0000000000000D+00
   328  3.2700000000000D+00  0.0000000000000D+00  0.0000000000000D+00
   329  3.2800000000000D+00  0.0000000000000D+00  0.0000000000000D+00
   330  3.2900000000000D+00  0.0000000000000D+00  0.0000000000000D+00
   331  3.3000000000000D+00  0.0000000000000D+00  0.0000000000000D+00
   332  3.3100000000000D+00  0.0000000000000D+00  0.0000000000000D+00
   333  3.3200000000000D+00  0.0000000000000D+00  0.0000000000000D+00
   334  3.3300000000000D+00  0.0000000000000D+00  0.0000000000000D+00
   335  3.3400000000000D+00  0.0000000000000D+00  0.0000000000000D+00
   336  3.3500000000000D+00  0.0000000000000D+00  0.0000000000000D+00
   337  3.3600000000000D+00  0.0000000000000D+00  0.0000000000000D+00
   338  3.3700000000000D+00  0.0000000000000D+00  0.0000000000000D+00
   339  3.3800000000000D+00  0.0000000000000D+00  0.0000000000000D+00
   340  3.3900000000000D+00  0.0000000000000D+00  0.0000000000000D+00
   341  3.4000000000000D+00  0.0000000000000D+00  0.0000000000000D+00
   342  3.4100000000000D+00  0.0000000000000D+00  0.0000000000000D+00
   343  3.4200000000000D+00  0.0000000000000D+00  0.0000000000000D+00
   344  3.4300000000000D+00  0.0000000000000D+00  0.0000000000000D+00
   345  3.4400000000000D+00  0.0000000000000D+00  0.0000000000000D+00
   346  3.4500000000000D+00  0.0000000000000D+00  0.0000000000000D+00
   347  3.4600000000000D+00  0.0000000000000D+00  0.0000000000000D+00
   348  3.4700000000000D+00  0.0000000000000D+00  0.0000000000000D+00
   349  3.4800000000000D+00  0.0000000000000D+00  0.0000000000000D+00
   350  3.4900000000000D+00  0.0000000000000D+00  0.0000000000000D+00
   351  3.5000000000000D+00  0.0000000000000D+00  0.0000000000000D+00
   352  3.5100000000000D+00  0.0000000000000D+00  0.0000000000000D+00
   353  3.5200000000000D+00  0.0000000000000D+00  0.0000000000000D+00
   354  3.5300000000000D+00  0.0000000000000D+00  0.0000000000000D+00
   355  3.5400000000000D+00  0.0000000000000D+00  0.0000000000000D+00
   356  3.5500000000000D+00  0.0000000000000D+00  0.0000000000000D+00
   357  3.5600000000000D+00  0.0000000000000D+00  0.0000000000000D+00
   358  3.5700000000000D+00  0.0000000000000D+00  0.0000000000000D+00
   359  3.5800000000000D+00  0.0000000000000D+00  0.0000000000000D+00
   360  3.5900000000000D+00  0.0000000000000D+00  0.0000000000000D+00
   361  3.6000000000000D+00  0.0000000000000D+00  0.0000000000000D+00
   362  3.6100000000000D+00  0.0000000000000D+00  0.0000000000000D+00
   363  3.6200000000000D+00  0.0000000000000D+00  0.0000000000000D+00
   364  3.6300000000000D+00  0.0000000000000D+00  0.0000000000000D+00
   365  3.6400000000000D+00  0.0000000000000D+00  0.0000000000000D+00
   366  3.6500000000000D+00  0.0000000000000D+00  0.0000000000000D+00
   367  3.6600000000000D+00  0.0000000000000D+00  0.0000000000000D+00
   368  3.6700000000000D+00  0.0000000000000D+00  0.0000000000000D+00
   369  3.6800000000000D+00  0.0000000000000D+00  0.0000000000000D+00
   370  3.6900000000000D+00  0.0000000000000D+00  0.0000000000000D+00
   371  3.7000000000000D+00  0.0000000000000D+00  0.0000000000000D+00
   372  3.7100000000000D+00  0.0000000000000D+00  0.0000000000000D+00
   373  3.7200000000000D+00  0.0000000000000D+00  0.0000000000000D+00
   374  3.7300000000000D+00  0.0000000000000D+00  0.0000000000000D+00
   375  3.7400000000000D+00  0.0000000000000D+00  0.0000000000000D+00
   376  3.7500000000000D+00  0.0000000000000D+00  0.0000000000000D+00
   377  3.7600000000000D+00  0.0000000000000D+00  0.0000000000000D+00
   378  3.7700000000000D+00  0.0000000000000D+00  0.0000000000000D+00
   379  3.7800000000000D+00  0.0000000000000D+00  0.0000000000000D+00
   380  3.7900000000000D+00  0.0000000000000D+00  0.0000000000000D+00
   381  3.8000000000000D+00  0.0000000000000D+00  0.0000000000000D+00
   382  3.8100000000000D+00  0.0000000000000D+00  0.0000000000000D+00
   383  3.8200000000000D+00  0.0000000000000D+00  0.0000000000000D+00
   384  3.8300000000000D+00  0.0000000000000D+00  0.0000000000000D+00
   385  3.8400000000000D+00  0.0000000000000D+00  0.0000000000000D+00
   386  3.8500000000000D+00  0.0000000000000D+00  0.0000000000000D+00
   387  3.8600000000000D+00  0.0000000000000D+00  0.0000000000000D+00
   388  3.8700000000000D+00  0.0000000000000D+00  0.0000000000000D+00
   389  3.8800000000000D+00  0.0000000000000D+00  0.0000000000000D+00
   390  3.8900000000000D+00  0.0000000000000D+00  0.0000000000000D+00
   391  3.9000000000000D+00  0.0000000000000D+00  0.0000000000000D+00
   392  3.9100000000000D+00  0.0000000000000D+00  0.0000000000000D+00
   393  3.9200000000000D+00  0.0000000000000D+00  0.0000000000000D+00
   394  3.9300000000000D+00  0.0000000000000D+00  0.0000000000000D+00
   395  3.9400000000000D+00  0.0000000000000D+00  0.0000000000000D+00
   396  3.9500000000000D+00  0.0000000000000D+00  0.0000000000000D+00
   397  3.9600000000000D+00  0.0000000000000D+00  0.0000000000000D+00
   398  3.9700000000000D+00  0.0000000000000D+00  0.0000000000000D+00
   399  3.9800000000000D+00  0.0000000000000D+00  0.0000000000000D+00
   400  3.9900000000000D+00  0.0000000000000D+00  0.0000000000000D+00
   401  4.0000000000000D+00  0.0000000000000D+00  0.0000000000000D+00
   402  4.0100000000000D+00  0.0000000000000D+00  0.0000000000000D+00
   403  4.0200000000000D+00  0.0000000000000D+00  0.0000000000000D+00
   404  4.0300000000000D+00  0.0000000000000D+00  0.0000000000000D+00
   405  4.0400000000000D+00  0.0000000000000D+00  0.0000000000000D+00
   406  4.0500000000000D+00  0.0000000000000D+00  0.0000000000000D+00
   407  4.0600000000000D+00  0.0000000000000D+00  0.0000000000000D+00
   408  4.0700000000000D+00  0.0000000000000D+00  0.0000000000000D+00
   409  4.0800000000000D+00  0.0000000000000D+00  0.0000000000000D+00
   410  4.0900000000000D+00  0.0000000000000D+00  0.0000000000000D+00
   411  4.1000000000000D+00  0.0000000000000D+00  0.0000000000000D+00
   412  4.1100000000000D+00  0.0000000000000D+00  0.0000000000000D+00
   413  4.1200000000000D+00  0.0000000000000D+00  0.0000000000000D+00
   414  4.1300000000000D+00  0.0000000000000D+00  0.0000000000000D+00
   415  4.1400000000000D+00  0.0000000000000D+00  0.0000000000000D+00
   416  4.1500000000000D+00  0.0000000000000D+00  0.0000000000000D+00
   417  4.1600000000000D+00  0.0000000000000D+00  0.0000000000000D+00
   418  4.1700000000000D+00  0.0000000000000D+00  0.0000000000000D+00
   419  4.1800000000000D+00  0.0000000000000D+00  0.0000000000000D+00
   420  4.1900000000000D+00  0.0000000000000D+00  0.0000000000000D+00
   421  4.2000000000000D+00  0.0000000000000D+00  0.0000000000000D+00
   422  4.2100000000000D+00  0.0000000000000D+00  0.0000000000000D+00