Rn    ONCVPSP-3.3.0  r_core=   2.42844   2.10456   2.86982
     86.0000      8.0000      220408    zatom,zion,pspd
     8       2   2     4   600     0    pspcod,pspxc,lmax,lloc,mmax,r2well
  5.99000000  0.00000000  0.00000000    rchrg fchrg qchrg
     2     2     2     0     0    nproj
     1     1           extension_switch
   0                         5.8543587539005D+00  6.6749677217100D-01
     1  0.0000000000000D+00  2.2294111001742D-12 -5.4950072270188D-12
     2  1.0000000000000D-02  1.9983879846588D-02  4.3877885363918D-03
     3  2.0000000000000D-02  3.9975332729215D-02  8.7402338377184D-03
     4  3.0000000000000D-02  5.9981871246334D-02  1.3022143271141D-02
     5  4.0000000000000D-02  8.0010887321871D-02  1.7198624915915D-02
     6  5.0000000000000D-02  1.0006959236906D-01  2.1235236689930D-02
     7  6.0000000000000D-02  1.2016495805400D-01  2.5098134004682D-02
     8  7.0000000000000D-02  1.4030365785626D-01  2.8754215464596D-02
     9  8.0000000000000D-02  1.6049200962166D-01  3.2171266132059D-02
    10  9.0000000000000D-02  1.8073591929944D-01  3.5318097886393D-02
    11  1.0000000000000D-01  2.0104082605296D-01  3.8164686413144D-02
    12  1.1000000000000D-01  2.2141164892900D-01  4.0682304369527D-02
    13  1.2000000000000D-01  2.4185273526653D-01  4.2843650282696D-02
    14  1.3000000000000D-01  2.6236781102080D-01  4.4622972749479D-02
    15  1.4000000000000D-01  2.8295993317343D-01  4.5996189519594D-02
    16  1.5000000000000D-01  3.0363144439298D-01  4.6941001058797D-02
    17  1.6000000000000D-01  3.2438393010452D-01  4.7436998204138D-02
    18  1.7000000000000D-01  3.4521817811962D-01  4.7465763540353D-02
    19  1.8000000000000D-01  3.6613414097105D-01  4.7010966144295D-02
    20  1.9000000000000D-01  3.8713090108878D-01  4.6058449363467D-02
    21  2.0000000000000D-01  4.0820663894577D-01  4.4596311314541D-02
    22  2.1000000000000D-01  4.2935860429359D-01  4.2614977808991D-02
    23  2.2000000000000D-01  4.5058309059900D-01  4.0107267434764D-02
    24  2.3000000000000D-01  4.7187541278349D-01  3.7068448545778D-02
    25  2.4000000000000D-01  4.9322988835819D-01  3.3496287934730D-02
    26  2.5000000000000D-01  5.1463982203676D-01  2.9391090988989D-02
    27  2.6000000000000D-01  5.3609749389879D-01  2.4755733154625D-02
    28  2.7000000000000D-01  5.5759415116580D-01  1.9595682559250D-02
    29  2.8000000000000D-01  5.7912000364146D-01  1.3919013670746D-02
    30  2.9000000000000D-01  6.0066422285673D-01  7.7364118958376D-03
    31  3.0000000000000D-01  6.2221494494974D-01  1.0611690496832D-03
    32  3.1000000000000D-01  6.4375927729915D-01 -6.0908303445347D-03
    33  3.2000000000000D-01  6.6528330891840D-01 -1.3701131939220D-02
    34  3.3000000000000D-01  6.8677212460714D-01 -2.1748743614055D-02
    35  3.4000000000000D-01  7.0820982284450D-01 -3.0210176652250D-02
    36  3.5000000000000D-01  7.2957953739781D-01 -3.9059495969624D-02
    37  3.6000000000000D-01  7.5086346260863D-01 -4.8268379296035D-02
    38  3.7000000000000D-01  7.7204288230704D-01 -5.7806185180547D-02
    39  3.8000000000000D-01  7.9309820229347D-01 -6.7640029663509D-02
    40  3.9000000000000D-01  8.1400898631635D-01 -7.7734871430689D-02
    41  4.0000000000000D-01  8.3475399546303D-01 -8.8053605237003D-02
    42  4.1000000000000D-01  8.5531123087007D-01 -9.8557163360259D-02
    43  4.2000000000000D-01  8.7565797964884D-01 -1.0920462481851D-01
    44  4.3000000000000D-01  8.9577086391168D-01 -1.1995333205847D-01
    45  4.4000000000000D-01  9.1562589277356D-01 -1.3075901479701D-01
    46  4.5000000000000D-01  9.3519851719463D-01 -1.4157592067293D-01
    47  4.6000000000000D-01  9.5446368751929D-01 -1.5235695234221D-01
    48  4.7000000000000D-01  9.7339591355814D-01 -1.6305381062711D-01
    49  4.8000000000000D-01  9.9196932705045D-01 -1.7361714330702D-01
    50  4.9000000000000D-01  1.0101577463365D+00 -1.8399669911840D-01
    51  5.0000000000000D-01  1.0279347430606D+00 -1.9414148651078D-01
    52  5.1000000000000D-01  1.0452737107197D+00 -2.0399993668754D-01
    53  5.2000000000000D-01  1.0621479348619D+00 -2.1352007044227D-01
    54  5.3000000000000D-01  1.0785306647384D+00 -2.2264966828588D-01
    55  5.4000000000000D-01  1.0943951862004D+00 -2.3133644334449D-01
    56  5.5000000000000D-01  1.1097148956309D+00 -2.3952821649540D-01
    57  5.6000000000000D-01  1.1244633746964D+00 -2.4717309319595D-01
    58  5.7000000000000D-01  1.1386144656962D+00 -2.5421964145098D-01
    59  5.8000000000000D-01  1.1521423472886D+00 -2.6061707035501D-01
    60  5.9000000000000D-01  1.1650216103652D+00 -2.6631540863916D-01
    61  6.0000000000000D-01  1.1772273338450D+00 -2.7126568264749D-01
    62  6.1000000000000D-01  1.1887351601593D+00 -2.7542009316370D-01
    63  6.2000000000000D-01  1.1995213701944D+00 -2.7873219050835D-01
    64  6.3000000000000D-01  1.2095629574617D+00 -2.8115704732592D-01
    65  6.4000000000000D-01  1.2188377012643D+00 -2.8265142848408D-01
    66  6.5000000000000D-01  1.2273242386295D+00 -2.8317395751066D-01
    67  6.6000000000000D-01  1.2350021347810D+00 -2.8268527900014D-01
    68  6.7000000000000D-01  1.2418519519237D+00 -2.8114821642859D-01
    69  6.8000000000000D-01  1.2478553161213D+00 -2.7852792482607D-01
    70  6.9000000000000D-01  1.2529949820469D+00 -2.7479203776610D-01
    71  7.0000000000000D-01  1.2572548953956D+00 -2.6991080814584D-01
    72  7.1000000000000D-01  1.2606202527502D+00 -2.6385724224485D-01
    73  7.2000000000000D-01  1.2630775586984D+00 -2.5660722656764D-01
    74  7.3000000000000D-01  1.2646146800087D+00 -2.4813964699356D-01
    75  7.4000000000000D-01  1.2652208966753D+00 -2.3843649977809D-01
    76  7.5000000000000D-01  1.2648869496548D+00 -2.2748299397108D-01
    77  7.6000000000000D-01  1.2636050851241D+00 -2.1526764484187D-01
    78  7.7000000000000D-01  1.2613690950974D+00 -2.0178235792571D-01
    79  7.8000000000000D-01  1.2581743542525D+00 -1.8702250333302D-01
    80  7.9000000000000D-01  1.2540178528250D+00 -1.7098697999101D-01
    81  8.0000000000000D-01  1.2488982254407D+00 -1.5367826951676D-01
    82  8.1000000000000D-01  1.2428157757686D+00 -1.3510247945154D-01
    83  8.2000000000000D-01  1.2357724968869D+00 -1.1526937561825D-01
    84  8.3000000000000D-01  1.2277720872697D+00 -9.4192403396924D-02
    85  8.4000000000000D-01  1.2188199623119D+00 -7.1888697747312D-02
    86  8.5000000000000D-01  1.2089232613240D+00 -4.8379081842478D-02
    87  8.6000000000000D-01  1.1980908499436D+00 -2.3688054213307D-02
    88  8.7000000000000D-01  1.1863333179208D+00  2.1562356597903D-03
    89  8.8000000000000D-01  1.1736629722513D+00  2.9122023334704D-02
    90  8.9000000000000D-01  1.1600938256437D+00  5.7173976964125D-02
    91  9.0000000000000D-01  1.1456415803226D+00  8.6273256372134D-02
    92  9.1000000000000D-01  1.1303236071824D+00  1.1637758356403D-01
    93  9.2000000000000D-01  1.1141589203224D+00  1.4744132454483D-01
    94  9.3000000000000D-01  1.0971681470068D+00  1.7941558228355D-01
    95  9.4000000000000D-01  1.0793734931088D+00  2.1224830062252D-01
    96  9.5000000000000D-01  1.0607987041112D+00  2.4588437889351D-01
    97  9.6000000000000D-01  1.0414690217507D+00  2.8026579696547D-01
    98  9.7000000000000D-01  1.0214111364075D+00  3.1533175041192D-01
    99  9.8000000000000D-01  1.0006531353533D+00  3.5101879545041D-01
   100  9.9000000000000D-01  9.7922444698741D-01  3.8726100327126D-01
   101  1.0000000000000D+00  9.5715578120151D-01  4.2399012333924D-01
   102  1.0100000000000D+00  9.3447906602634D-01  4.6113575521887D-01
   103  1.0200000000000D+00  9.1122738072759D-01  4.9862552844178D-01
   104  1.0300000000000D+00  8.8743488552832D-01  5.3638528990505D-01
   105  1.0400000000000D+00  8.6313674814741D-01  5.7433929826031D-01
   106  1.0500000000000D+00  8.3836906735437D-01  6.1241042472584D-01
   107  1.0600000000000D+00  8.1316879375069D-01  6.5052035972887D-01
   108  1.0700000000000D+00  7.8757364799750D-01  6.8858982476176D-01
   109  1.0800000000000D+00  7.6162203671857D-01  7.2653878881263D-01
   110  1.0900000000000D+00  7.3535296631559D-01  7.6428668871261D-01
   111  1.1000000000000D+00  7.0880595494031D-01  8.0175265272287D-01
   112  1.1100000000000D+00  6.8202094287433D-01  8.3885572667078D-01
   113  1.1200000000000D+00  6.5503820157405D-01  8.7551510192914D-01
   114  1.1300000000000D+00  6.2789824164285D-01  9.1165034452250D-01
   115  1.1400000000000D+00  6.0064171999701D-01  9.4718162463583D-01
   116  1.1500000000000D+00  5.7330934649513D-01  9.8202994579476D-01
   117  1.1600000000000D+00  5.4594179030360D-01  1.0161173729821D+00
   118  1.1700000000000D+00  5.1857958627232D-01  1.0493672589545D+00
   119  1.1800000000000D+00  4.9126304159517D-01  1.0817044680252D+00
   120  1.1900000000000D+00  4.6403214303026D-01  1.1130555965803D+00
   121  1.2000000000000D+00  4.3692646495355D-01  1.1433491896052D+00
   122  1.2100000000000D+00  4.0998507851746D-01  1.1725159525036D+00
   123  1.2200000000000D+00  3.8324646218275D-01  1.2004889575081D+00
   124  1.2300000000000D+00  3.5674841389013D-01  1.2272038439856D+00
   125  1.2400000000000D+00  3.3052796513087D-01  1.2525990119681D+00
   126  1.2500000000000D+00  3.0462129716999D-01  1.2766158082567D+00
   127  1.2600000000000D+00  2.7906365967411D-01  1.2991987044523D+00
   128  1.2700000000000D+00  2.5388929198242D-01  1.3202954663129D+00
   129  1.2800000000000D+00  2.2913134725149D-01  1.3398573138574D+00
   130  1.2900000000000D+00  2.0482181970533D-01  1.3578390716383D+00
   131  1.3000000000000D+00  1.8099147519915D-01  1.3741993086750D+00
   132  1.3100000000000D+00  1.5766978529938D-01  1.3889004675567D+00
   133  1.3200000000000D+00  1.3488486508271D-01  1.4019089822265D+00
   134  1.3300000000000D+00  1.1266341482498D-01  1.4131953840508D+00
   135  1.3400000000000D+00  9.1030665751279D-02  1.4227343957812D+00
   136  1.3500000000000D+00  7.0010330011946D-02  1.4305050130327D+00
   137  1.3600000000000D+00  4.9624555011766D-02  1.4364905730148D+00
   138  1.3700000000000D+00  2.9893882233046D-02  1.4406788102126D+00
   139  1.3800000000000D+00  1.0837210666629D-02  1.4430618987939D+00
   140  1.3900000000000D+00 -7.5282350675355D-03  1.4436364816114D+00
   141  1.4000000000000D+00 -2.5186931795731D-02  1.4424036855768D+00
   142  1.4100000000000D+00 -4.2125080023208D-02  1.4393691234013D+00
   143  1.4200000000000D+00 -5.8330621257271D-02  1.4345428816160D+00
   144  1.4300000000000D+00 -7.3793250374665D-02  1.4279394948468D+00
   145  1.4400000000000D+00 -8.8504423045162D-02  1.4195779064842D+00
   146  1.4500000000000D+00 -1.0245735815882D-01  1.4094814157031D+00
   147  1.4600000000000D+00 -1.1564703531554D-01  1.3976776111083D+00
   148  1.4700000000000D+00 -1.2807018737353D-01  1.3841982910992D+00
   149  1.4800000000000D+00 -1.3972528810567D-01  1.3690793712029D+00
   150  1.4900000000000D+00 -1.5061253504449D-01  1.3523607787064D+00
   151  1.5000000000000D+00 -1.6073382754422D-01  1.3340863347787D+00
   152  1.5100000000000D+00 -1.7009274021355D-01  1.3143036246173D+00
   153  1.5200000000000D+00 -1.7869449175384D-01  1.2930638558291D+00
   154  1.5300000000000D+00 -1.8654590938582D-01  1.2704217056578D+00
   155  1.5400000000000D+00 -1.9365538895129D-01  1.2464351574123D+00
   156  1.5500000000000D+00 -2.0003285086230D-01  1.2211653266795D+00
   157  1.5600000000000D+00 -2.0568969205444D-01  1.1946762778626D+00
   158  1.5700000000000D+00 -2.1063873409942D-01  1.1670348315856D+00
   159  1.5800000000000D+00 -2.1489416769745D-01  1.1383103636698D+00
   160  1.5900000000000D+00 -2.1847149369232D-01  1.1085745961964D+00
   161  1.6000000000000D+00 -2.2138746088102D-01  1.0779013814865D+00
   162  1.6100000000000D+00 -2.2366000075794D-01  1.0463664795121D+00
   163  1.6200000000000D+00 -2.2530815949778D-01  1.0140473296430D+00
   164  1.6300000000000D+00 -2.2635202733102D-01  9.8102281728437D-01
   165  1.6400000000000D+00 -2.2681266562398D-01  9.4737303631867D-01
   166  1.6500000000000D+00 -2.2671203184593D-01  9.1317904798253D-01
   167  1.6600000000000D+00 -2.2607290272783D-01  8.7852263706298D-01
   168  1.6700000000000D+00 -2.2491879582469D-01  8.4348606611837D-01
   169  1.6800000000000D+00 -2.2327388977550D-01  8.0815182856809D-01
   170  1.6900000000000D+00 -2.2116294349658D-01  7.7260240141700D-01
   171  1.7000000000000D+00 -2.1861121458913D-01  7.3691999840769D-01
   172  1.7100000000000D+00 -2.1564437721710D-01  7.0118632441962D-01
   173  1.7200000000000D+00 -2.1228843971726D-01  6.6548233183570D-01
   174  1.7300000000000D+00 -2.0856966221810D-01  6.2988797975410D-01
   175  1.7400000000000D+00 -2.0451447450002D-01  5.9448199665703D-01
   176  1.7500000000000D+00 -2.0014939440020D-01  5.5934164749619D-01
   177  1.7600000000000D+00 -1.9550094694808D-01  5.2454250564206D-01
   178  1.7700000000000D+00 -1.9059558457460D-01  4.9015823078366D-01
   179  1.7800000000000D+00 -1.8545960851223D-01  4.5626035298825D-01
   180  1.7900000000000D+00 -1.8011909178102D-01  4.2291806417370D-01
   181  1.8000000000000D+00 -1.7459980380295D-01  3.9019801695649D-01
   182  1.8100000000000D+00 -1.6892713707032D-01  3.5816413221001D-01
   183  1.8200000000000D+00 -1.6312603586937D-01  3.2687741517616D-01
   184  1.8300000000000D+00 -1.5722092746504D-01  2.9639578137274D-01
   185  1.8400000000000D+00 -1.5123565575665D-01  2.6677389218826D-01
   186  1.8500000000000D+00 -1.4519341773162D-01  2.3806300112329D-01
   187  1.8600000000000D+00 -1.3911670279438D-01  2.1031081080726D-01
   188  1.8700000000000D+00 -1.3302723514937D-01  1.8356134124913D-01
   189  1.8800000000000D+00 -1.2694591945270D-01  1.5785480990660D-01
   190  1.8900000000000D+00 -1.2089278968787D-01  1.3322752330179D-01
   191  1.9000000000000D+00 -1.1488696168187D-01  1.0971178141696D-01
   192  1.9100000000000D+00 -1.0894658895371D-01  8.7335793758329D-02
   193  1.9200000000000D+00 -1.0308882247894D-01  6.6123608843443D-02
   194  1.9300000000000D+00 -9.7329773957953D-02  4.6095055683208D-02
   195  1.9400000000000D+00 -9.1684483053200D-02  2.7265698620125D-02
   196  1.9500000000000D+00 -8.6166888393856D-02  9.6468047761544D-03
   197  1.9600000000000D+00 -8.0789802447915D-02 -6.7546756894645D-03
   198  1.9700000000000D+00 -7.5564890429913D-02 -2.1936116097261D-02
   199  1.9800000000000D+00 -7.0502652887441D-02 -3.5899207758422D-02
   200  1.9900000000000D+00 -6.5612412493688D-02 -4.8649940962982D-02
   201  2.0000000000000D+00 -6.0902304436359D-02 -6.0198574427894D-02
   202  2.0100000000000D+00 -5.6379270873936D-02 -7.0559591880049D-02
   203  2.0200000000000D+00 -5.2049059102911D-02 -7.9751646966272D-02
   204  2.0300000000000D+00 -4.7916223425496D-02 -8.7797496636671D-02
   205  2.0400000000000D+00 -4.3984129501544D-02 -9.4723928699305D-02
   206  2.0500000000000D+00 -4.0254969218093D-02 -1.0056164744309D-01
   207  2.0600000000000D+00 -3.6729758992063D-02 -1.0534523672066D-01
   208  2.0700000000000D+00 -3.3408379170326D-02 -1.0911295007622D-01
   209  2.0800000000000D+00 -3.0289587751149D-02 -1.1190661486976D-01
   210  2.0900000000000D+00 -2.7371034076538D-02 -1.1377153584509D-01
   211  2.1000000000000D+00 -2.4649188899376D-02 -1.1475679073296D-01
   212  2.1100000000000D+00 -2.2119568078081D-02 -1.1491421684082D-01
   213  2.1200000000000D+00 -1.9776830442507D-02 -1.1429795312092D-01
   214  2.1300000000000D+00 -1.7614918475772D-02 -1.1296383232018D-01
   215  2.1400000000000D+00 -1.5627174856798D-02 -1.1096891056724D-01
   216  2.1500000000000D+00 -1.3806599541806D-02 -1.0837037028595D-01
   217  2.1600000000000D+00 -1.2145799533798D-02 -1.0522578748740D-01
   218  2.1700000000000D+00 -1.0637052778376D-02 -1.0159291096786D-01
   219  2.1800000000000D+00 -9.2723573754717D-03 -9.7529502188072D-02
   220  2.1900000000000D+00 -8.0435194620146D-03 -9.3092993727309D-02
   221  2.2000000000000D+00 -6.9421977883876D-03 -8.8340351009109D-02
   222  2.2100000000000D+00 -5.9599685724274D-03 -8.3327840603750D-02
   223  2.2200000000000D+00 -5.0883840488498D-03 -7.8110827289505D-02
   224  2.2300000000000D+00 -4.3190302480273D-03 -7.2743574337055D-02
   225  2.2400000000000D+00 -3.6435836177324D-03 -6.7279048187085D-02
   226  2.2500000000000D+00 -3.0538664321861D-03 -6.1768728011300D-02
   227  2.2600000000000D+00 -2.5419003946707D-03 -5.6262422054359D-02
   228  2.2700000000000D+00 -2.0999583324184D-03 -5.0808091061699D-02
   229  2.2800000000000D+00 -1.7206141946869D-03 -4.5451678102209D-02
   230  2.2900000000000D+00 -1.3967903839389D-03 -4.0236947872680D-02
   231  2.3000000000000D+00 -1.1218029644598D-03 -3.5205333730153D-02
   232  2.3100000000000D+00 -8.8940445415205D-04 -3.0395793380890D-02
   233  2.3200000000000D+00 -6.9382346765846D-04 -2.5844675532542D-02
   234  2.3300000000000D+00 -5.2980197857494D-04 -2.1585595068408D-02
   235  2.3400000000000D+00 -3.9262943597613D-04 -1.7649319154757D-02
   236  2.3500000000000D+00 -2.7812919277806D-04 -1.4066740295199D-02
   237  2.3600000000000D+00 -1.8284194630311D-04 -1.0858005361300D-02
   238  2.3700000000000D+00 -1.0392722184942D-04 -8.0409583477241D-03
   239  2.3800000000000D+00 -3.9971463083148D-05 -5.6187591003506D-03
   240  2.3900000000000D+00  1.2274188079223D-05 -3.6457627907378D-03
   241  2.4000000000000D+00  5.4503990233819D-05 -2.1542710050947D-03
   242  2.4100000000000D+00  8.9765462026244D-05 -1.1696683511120D-03
   243  2.4200000000000D+00  1.0789521697789D-04 -5.7608652558644D-04
   244  2.4300000000000D+00  1.0241181826745D-04 -2.5810850807043D-04
   245  2.4400000000000D+00  6.8677550745514D-05 -8.9150913287918D-05
   246  2.4500000000000D+00  2.7193898301272D-05 -1.8762790190961D-05
   247  2.4600000000000D+00 -4.3921610495147D-06  1.9116037943635D-06
   248  2.4700000000000D+00 -1.2117938780168D-05  2.0213136880707D-06
   249  2.4800000000000D+00 -6.9911680738979D-06 -1.5768875060910D-07
   250  2.4900000000000D+00  9.9337884067091D-07 -7.5011843848964D-07
   251  2.5000000000000D+00  2.6756892595173D-06 -1.7502439450019D-06
   252  2.5100000000000D+00  1.6400807169453D-06 -9.3659620023296D-07
   253  2.5200000000000D+00 -1.0941587082853D-07  3.0716694879120D-07
   254  2.5300000000000D+00 -2.9814903671755D-07  8.3700407628331D-07
   255  2.5400000000000D+00 -1.9252227659268D-07  5.4047442868673D-07
   256  2.5500000000000D+00  0.0000000000000D+00  0.0000000000000D+00
   257  2.5600000000000D+00  0.0000000000000D+00  0.0000000000000D+00
   258  2.5700000000000D+00  0.0000000000000D+00  0.0000000000000D+00
   259  2.5800000000000D+00  0.0000000000000D+00  0.0000000000000D+00
   260  2.5900000000000D+00  0.0000000000000D+00  0.0000000000000D+00
   261  2.6000000000000D+00  0.0000000000000D+00  0.0000000000000D+00
   262  2.6100000000000D+00  0.0000000000000D+00  0.0000000000000D+00
   263  2.6200000000000D+00  0.0000000000000D+00  0.0000000000000D+00
   264  2.6300000000000D+00  0.0000000000000D+00  0.0000000000000D+00
   265  2.6400000000000D+00  0.0000000000000D+00  0.0000000000000D+00
   266  2.6500000000000D+00  0.0000000000000D+00  0.0000000000000D+00
   267  2.6600000000000D+00  0.0000000000000D+00  0.0000000000000D+00
   268  2.6700000000000D+00  0.0000000000000D+00  0.0000000000000D+00
   269  2.6800000000000D+00  0.0000000000000D+00  0.0000000000000D+00
   270  2.6900000000000D+00  0.0000000000000D+00  0.0000000000000D+00
   271  2.7000000000000D+00  0.0000000000000D+00  0.0000000000000D+00
   272  2.7100000000000D+00  0.0000000000000D+00  0.0000000000000D+00
   273  2.7200000000000D+00  0.0000000000000D+00  0.0000000000000D+00
   274  2.7300000000000D+00  0.0000000000000D+00  0.0000000000000D+00
   275  2.7400000000000D+00  0.0000000000000D+00  0.0000000000000D+00
   276  2.7500000000000D+00  0.0000000000000D+00  0.0000000000000D+00
   277  2.7600000000000D+00  0.0000000000000D+00  0.0000000000000D+00
   278  2.7700000000000D+00  0.0000000000000D+00  0.0000000000000D+00
   279  2.7800000000000D+00  0.0000000000000D+00  0.0000000000000D+00
   280  2.7900000000000D+00  0.0000000000000D+00  0.0000000000000D+00
   281  2.8000000000000D+00  0.0000000000000D+00  0.0000000000000D+00
   282  2.8100000000000D+00  0.0000000000000D+00  0.0000000000000D+00
   283  2.8200000000000D+00  0.0000000000000D+00  0.0000000000000D+00
   284  2.8300000000000D+00  0.0000000000000D+00  0.0000000000000D+00
   285  2.8400000000000D+00  0.0000000000000D+00  0.0000000000000D+00
   286  2.8500000000000D+00  0.0000000000000D+00  0.0000000000000D+00
   287  2.8600000000000D+00  0.0000000000000D+00  0.0000000000000D+00
   288  2.8700000000000D+00  0.0000000000000D+00  0.0000000000000D+00
   289  2.8800000000000D+00  0.0000000000000D+00  0.0000000000000D+00
   290  2.8900000000000D+00  0.0000000000000D+00  0.0000000000000D+00
   291  2.9000000000000D+00  0.0000000000000D+00  0.0000000000000D+00
   292  2.9100000000000D+00  0.0000000000000D+00  0.0000000000000D+00
   293  2.9200000000000D+00  0.0000000000000D+00  0.0000000000000D+00
   294  2.9300000000000D+00  0.0000000000000D+00  0.0000000000000D+00
   295  2.9400000000000D+00  0.0000000000000D+00  0.0000000000000D+00
   296  2.9500000000000D+00  0.0000000000000D+00  0.0000000000000D+00
   297  2.9600000000000D+00  0.0000000000000D+00  0.0000000000000D+00
   298  2.9700000000000D+00  0.0000000000000D+00  0.0000000000000D+00
   299  2.9800000000000D+00  0.0000000000000D+00  0.0000000000000D+00
   300  2.9900000000000D+00  0.0000000000000D+00  0.0000000000000D+00
   301  3.0000000000000D+00  0.0000000000000D+00  0.0000000000000D+00
   302  3.0100000000000D+00  0.0000000000000D+00  0.0000000000000D+00
   303  3.0200000000000D+00  0.0000000000000D+00  0.0000000000000D+00
   304  3.0300000000000D+00  0.0000000000000D+00  0.0000000000000D+00
   305  3.0400000000000D+00  0.0000000000000D+00  0.0000000000000D+00
   306  3.0500000000000D+00  0.0000000000000D+00  0.0000000000000D+00
   307  3.0600000000000D+00  0.0000000000000D+00  0.0000000000000D+00
   308  3.0700000000000D+00  0.0000000000000D+00  0.0000000000000D+00
   309  3.0800000000000D+00  0.0000000000000D+00  0.0000000000000D+00
   310  3.0900000000000D+00  0.0000000000000D+00  0.0000000000000D+00
   311  3.1000000000000D+00  0.0000000000000D+00  0.0000000000000D+00
   312  3.1100000000000D+00  0.0000000000000D+00  0.0000000000000D+00
   313  3.1200000000000D+00  0.0000000000000D+00  0.0000000000000D+00
   314  3.1300000000000D+00  0.0000000000000D+00  0.0000000000000D+00
   315  3.1400000000000D+00  0.0000000000000D+00  0.0000000000000D+00
   316  3.1500000000000D+00  0.0000000000000D+00  0.0000000000000D+00
   317  3.1600000000000D+00  0.0000000000000D+00  0.0000000000000D+00
   318  3.1700000000000D+00  0.0000000000000D+00  0.0000000000000D+00
   319  3.1800000000000D+00  0.0000000000000D+00  0.0000000000000D+00
   320  3.1900000000000D+00  0.0000000000000D+00  0.0000000000000D+00
   321  3.2000000000000D+00  0.0000000000000D+00  0.0000000000000D+00
   322  3.2100000000000D+00  0.0000000000000D+00  0.0000000000000D+00
   323  3.2200000000000D+00  0.0000000000000D+00  0.0000000000000D+00
   324  3.2300000000000D+00  0.0000000000000D+00  0.0000000000000D+00
   325  3.2400000000000D+00  0.0000000000000D+00  0.0000000000000D+00
   326  3.2500000000000D+00  0.0000000000000D+00  0.0000000000000D+00
   327  3.2600000000000D+00  0.0000000000000D+00  0.0000000000000D+00
   328  3.2700000000000D+00  0.0000000000000D+00  0.0000000000000D+00
   329  3.2800000000000D+00  0.0000000000000D+00  0.0000000000000D+00
   330  3.2900000000000D+00  0.0000000000000D+00  0.0000000000000D+00
   331  3.3000000000000D+00  0.0000000000000D+00  0.0000000000000D+00
   332  3.3100000000000D+00  0.0000000000000D+00  0.0000000000000D+00
   333  3.3200000000000D+00  0.0000000000000D+00  0.0000000000000D+00
   334  3.3300000000000D+00  0.0000000000000D+00  0.0000000000000D+00
   335  3.3400000000000D+00  0.0000000000000D+00  0.0000000000000D+00
   336  3.3500000000000D+00  0.0000000000000D+00  0.0000000000000D+00
   337  3.3600000000000D+00  0.0000000000000D+00  0.0000000000000D+00
   338  3.3700000000000D+00  0.0000000000000D+00  0.0000000000000D+00
   339  3.3800000000000D+00  0.0000000000000D+00  0.0000000000000D+00
   340  3.3900000000000D+00  0.0000000000000D+00  0.0000000000000D+00
   341  3.4000000000000D+00  0.0000000000000D+00  0.0000000000000D+00
   342  3.4100000000000D+00  0.0000000000000D+00  0.0000000000000D+00
   343  3.4200000000000D+00  0.0000000000000D+00  0.0000000000000D+00
   344  3.4300000000000D+00  0.0000000000000D+00  0.0000000000000D+00
   345  3.4400000000000D+00  0.0000000000000D+00  0.0000000000000D+00
   346  3.4500000000000D+00  0.0000000000000D+00  0.0000000000000D+00
   347  3.4600000000000D+00  0.0000000000000D+00  0.0000000000000D+00
   348  3.4700000000000D+00  0.0000000000000D+00  0.0000000000000D+00
   349  3.4800000000000D+00  0.0000000000000D+00  0.0000000000000D+00
   350  3.4900000000000D+00  0.0000000000000D+00  0.0000000000000D+00
   351  3.5000000000000D+00  0.0000000000000D+00  0.0000000000000D+00
   352  3.5100000000000D+00  0.0000000000000D+00  0.0000000000000D+00
   353  3.5200000000000D+00  0.0000000000000D+00  0.0000000000000D+00
   354  3.5300000000000D+00  0.0000000000000D+00  0.0000000000000D+00
   355  3.5400000000000D+00  0.0000000000000D+00  0.0000000000000D+00
   356  3.5500000000000D+00  0.0000000000000D+00  0.0000000000000D+00
   357  3.5600000000000D+00  0.0000000000000D+00  0.0000000000000D+00
   358  3.5700000000000D+00  0.0000000000000D+00  0.0000000000000D+00
   359  3.5800000000000D+00  0.0000000000000D+00  0.0000000000000D+00
   360  3.5900000000000D+00  0.0000000000000D+00  0.0000000000000D+00
   361  3.6000000000000D+00  0.0000000000000D+00  0.0000000000000D+00
   362  3.6100000000000D+00  0.0000000000000D+00  0.0000000000000D+00
   363  3.6200000000000D+00  0.0000000000000D+00  0.0000000000000D+00
   364  3.6300000000000D+00  0.0000000000000D+00  0.0000000000000D+00
   365  3.6400000000000D+00  0.0000000000000D+00  0.0000000000000D+00
   366  3.6500000000000D+00  0.0000000000000D+00  0.0000000000000D+00
   367  3.6600000000000D+00  0.0000000000000D+00  0.0000000000000D+00
   368  3.6700000000000D+00  0.0000000000000D+00  0.0000000000000D+00
   369  3.6800000000000D+00  0.0000000000000D+00  0.0000000000000D+00
   370  3.6900000000000D+00  0.0000000000000D+00  0.0000000000000D+00
   371  3.7000000000000D+00  0.0000000000000D+00  0.0000000000000D+00
   372  3.7100000000000D+00  0.0000000000000D+00  0.0000000000000D+00
   373  3.7200000000000D+00  0.0000000000000D+00  0.0000000000000D+00
   374  3.7300000000000D+00  0.0000000000000D+00  0.0000000000000D+00
   375  3.7400000000000D+00  0.0000000000000D+00  0.0000000000000D+00
   376  3.7500000000000D+00  0.0000000000000D+00  0.0000000000000D+00
   377  3.7600000000000D+00  0.0000000000000D+00  0.0000000000000D+00
   378  3.7700000000000D+00  0.0000000000000D+00  0.0000000000000D+00
   379  3.7800000000000D+00  0.0000000000000D+00  0.0000000000000D+00
   380  3.7900000000000D+00  0.0000000000000D+00  0.0000000000000D+00
   381  3.8000000000000D+00  0.0000000000000D+00  0.0000000000000D+00
   382  3.8100000000000D+00  0.0000000000000D+00  0.0000000000000D+00
   383  3.8200000000000D+00  0.0000000000000D+00  0.0000000000000D+00
   384  3.8300000000000D+00  0.0000000000000D+00  0.0000000000000D+00
   385  3.8400000000000D+00  0.0000000000000D+00  0.0000000000000D+00
   386  3.8500000000000D+00  0.0000000000000D+00  0.0000000000000D+00
   387  3.8600000000000D+00  0.0000000000000D+00  0.0000000000000D+00
   388  3.8700000000000D+00  0.0000000000000D+00  0.0000000000000D+00
   389  3.8800000000000D+00  0.0000000000000D+00  0.0000000000000D+00
   390  3.8900000000000D+00  0.0000000000000D+00  0.0000000000000D+00
   391  3.9000000000000D+00  0.0000000000000D+00  0.0000000000000D+00
   392  3.9100000000000D+00  0.0000000000000D+00  0.0000000000000D+00
   393  3.9200000000000D+00  0.0000000000000D+00  0.0000000000000D+00
   394  3.9300000000000D+00  0.0000000000000D+00  0.0000000000000D+00
   395  3.9400000000000D+00  0.0000000000000D+00  0.0000000000000D+00
   396  3.9500000000000D+00  0.0000000000000D+00  0.0000000000000D+00
   397  3.9600000000000D+00  0.0000000000000D+00  0.0000000000000D+00
   398  3.9700000000000D+00  0.0000000000000D+00  0.0000000000000D+00
   399  3.9800000000000D+00  0.0000000000000D+00  0.0000000000000D+00
   400  3.9900000000000D+00  0.0000000000000D+00  0.0000000000000D+00
   401  4.0000000000000D+00  0.0000000000000D+00  0.0000000000000D+00
   402  4.0100000000000D+00  0.0000000000000D+00  0.0000000000000D+00
   403  4.0200000000000D+00  0.0000000000000D+00  0.0000000000000D+00
   404  4.0300000000000D+00  0.0000000000000D+00  0.0000000000000D+00
   405  4.0400000000000D+00  0.0000000000000D+00  0.0000000000000D+00
   406  4.0500000000000D+00  0.0000000000000D+00  0.0000000000000D+00
   407  4.0600000000000D+00  0.0000000000000D+00  0.0000000000000D+00
   408  4.0700000000000D+00  0.0000000000000D+00  0.0000000000000D+00
   409  4.0800000000000D+00  0.0000000000000D+00  0.0000000000000D+00
   410  4.0900000000000D+00  0.0000000000000D+00  0.0000000000000D+00
   411  4.1000000000000D+00  0.0000000000000D+00  0.0000000000000D+00
   412  4.1100000000000D+00  0.0000000000000D+00  0.0000000000000D+00
   413  4.1200000000000D+00  0.0000000000000D+00  0.0000000000000D+00
   414  4.1300000000000D+00  0.0000000000000D+00  0.0000000000000D+00
   415  4.1400000000000D+00  0.0000000000000D+00  0.0000000000000D+00
   416  4.1500000000000D+00  0.0000000000000D+00  0.0000000000000D+00
   417  4.1600000000000D+00  0.0000000000000D+00  0.0000000000000D+00
   418  4.1700000000000D+00  0.0000000000000D+00  0.0000000000000D+00
   419  4.1800000000000D+00  0.0000000000000D+00  0.0000000000000D+00
   420  4.1900000000000D+00  0.0000000000000D+00  0.0000000000000D+00
   421  4.2000000000000D+00  0.0000000000000D+00  0.0000000000000D+00
   422  4.2100000000000D+00  0.0000000000000D+00  0.0000000000000D+00