Mn    ONCVPSP-3.3.0  r_core=   1.11270   1.11270   1.36285
     25.0000     15.0000      220408    zatom,zion,pspd
     8       2   2     4   600     0    pspcod,pspxc,lmax,lloc,mmax,r2well
  5.99000000  0.00000000  0.00000000    rchrg fchrg qchrg
     2     2     2     0     0    nproj
     1     1           extension_switch
   0                         2.2032501288287D+01  2.3272054284233D+00
     1  0.0000000000000D+00  1.9202742729263D-09 -5.2647856074728D-09
     2  1.0000000000000D-02  1.2088967877058D-01 -3.7514432202815D-02
     3  2.0000000000000D-02  2.4132449263832D-01 -7.4752240543363D-02
     4  3.0000000000000D-02  3.6085068174609D-01 -1.1143575729596D-01
     5  4.0000000000000D-02  4.7901671357902D-01 -1.4728529019326D-01
     6  5.0000000000000D-02  5.9537443925925D-01 -1.8201826674222D-01
     7  6.0000000000000D-02  7.0948029958914D-01 -2.1534856261582D-01
     8  7.0000000000000D-02  8.2089659512071D-01 -2.4698606916992D-01
     9  8.0000000000000D-02  9.2919283260852D-01 -2.7663654987018D-01
    10  9.0000000000000D-02  1.0339471578717D+00 -3.0400182900920D-01
    11  1.0000000000000D-01  1.1347478823908D+00 -3.2878034866215D-01
    12  1.1000000000000D-01  1.2311951079497D+00 -3.5066812150313D-01
    13  1.2000000000000D-01  1.3229024503565D+00 -3.6936009803189D-01
    14  1.3000000000000D-01  1.4094988598098D+00 -3.8455195710524D-01
    15  1.4000000000000D-01  1.4906305318736D+00 -3.9594231860356D-01
    16  1.5000000000000D-01  1.5659628993720D+00 -4.0323536677410D-01
    17  1.6000000000000D-01  1.6351826918714D+00 -4.0614386246869D-01
    18  1.7000000000000D-01  1.6980000458692D+00 -4.0439251232684D-01
    19  1.8000000000000D-01  1.7541506454175D+00 -3.9772165313770D-01
    20  1.9000000000000D-01  1.8033978697620D+00 -3.8589120033488D-01
    21  2.0000000000000D-01  1.8455349217242D+00 -3.6868480101973D-01
    22  2.1000000000000D-01  1.8803869080816D+00 -3.4591412424197D-01
    23  2.2000000000000D-01  1.9078128411501D+00 -3.1742321465377D-01
    24  2.3000000000000D-01  1.9277075292107D+00 -2.8309283023700D-01
    25  2.4000000000000D-01  1.9400033223902D+00 -2.4284468071020D-01
    26  2.5000000000000D-01  1.9446716801399D+00 -1.9664548055840D-01
    27  2.6000000000000D-01  1.9417245265915D+00 -1.4451072947707D-01
    28  2.7000000000000D-01  1.9312153608197D+00 -8.6508133441068D-02
    29  2.8000000000000D-01  1.9132400904204D+00 -2.2760581633398D-02
    30  2.9000000000000D-01  1.8879375588168D+00  4.6551401897089D-02
    31  3.0000000000000D-01  1.8554897393222D+00  1.2118780775560D-01
    32  3.1000000000000D-01  1.8161215721993D+00  2.0084796104064D-01
    33  3.2000000000000D-01  1.7701004247162D+00  2.8517007241263D-01
    34  3.3000000000000D-01  1.7177351584812D+00  3.7373157170965D-01
    35  3.4000000000000D-01  1.6593747930739D+00  4.6605026459737D-01
    36  3.5000000000000D-01  1.5954067601203D+00  5.6158634082785D-01
    37  3.6000000000000D-01  1.5262547474206D+00  6.5974524985882D-01
    38  3.7000000000000D-01  1.4523761384360D+00  7.5988144604259D-01
    39  3.8000000000000D-01  1.3742590583049D+00  8.6130299154555D-01
    40  3.9000000000000D-01  1.2924190434891D+00  9.6327699082272D-01
    41  4.0000000000000D-01  1.2073953580566D+00  1.0650358160855D+00
    42  4.1000000000000D-01  1.1197469853949D+00  1.1657840690008D+00
    43  4.2000000000000D-01  1.0300483297140D+00  1.2647062100886D+00
    44  4.3000000000000D-01  9.3888466695455D-01  1.3609747741868D+00
    45  4.4000000000000D-01  8.4684738956264D-01  1.4537590781586D+00
    46  4.5000000000000D-01  7.5452909394207D-01  1.5422343159579D+00
    47  4.6000000000000D-01  6.6251856316430D-01  1.6255909264570D+00
    48  4.7000000000000D-01  5.7139570062809D-01  1.7030441112686D+00
    49  4.8000000000000D-01  4.8172647274754D-01  1.7738433733452D+00
    50  4.9000000000000D-01  3.9405792034893D-01  1.8372819425548D+00
    51  5.0000000000000D-01  3.0891329923022D-01  1.8927059518474D+00
    52  5.1000000000000D-01  2.2678741024302D-01  1.9395232271256D+00
    53  5.2000000000000D-01  1.4814217827572D-01  1.9772115555883D+00
    54  5.3000000000000D-01  7.3402537642293D-02  2.0053263011443D+00
    55  5.4000000000000D-01  2.9526786129522D-03  2.0235072415025D+00
    56  5.5000000000000D-01 -6.2867293810460D-02  2.0314845096783D+00
    57  5.6000000000000D-01 -1.2376424223858D-01  2.0290835328392D+00
    58  5.7000000000000D-01 -1.7949437898494D-01  2.0162288735539D+00
    59  5.8000000000000D-01 -2.2986511249241D-01  1.9929468923923D+00
    60  5.9000000000000D-01 -2.7473632933175D-01  1.9593671663982D+00
    61  6.0000000000000D-01 -3.1402109016664D-01  1.9157226148138D+00
    62  6.1000000000000D-01 -3.4768572575273D-01  1.8623483015823D+00
    63  6.2000000000000D-01 -3.7574932701553D-01  1.7996789030763D+00
    64  6.3000000000000D-01 -3.9828263149518D-01  1.7282448491036D+00
    65  6.4000000000000D-01 -4.1540631681322D-01  1.6486671651751D+00
    66  6.5000000000000D-01 -4.2728872011831D-01  1.5616510638299D+00
    67  6.6000000000000D-01 -4.3414301070703D-01  1.4679783524833D+00
    68  6.7000000000000D-01 -4.3622385092714D-01  1.3684987441646D+00
    69  6.8000000000000D-01 -4.3382358798787D-01  1.2641201754621D+00
    70  6.9000000000000D-01 -4.2726802633581D-01  1.1557982527751D+00
    71  7.0000000000000D-01 -4.1691183661040D-01  1.0445249631071D+00
    72  7.1000000000000D-01 -4.0313366281870D-01  9.3131679898628D-01
    73  7.2000000000000D-01 -3.8633099413022D-01  8.1720245834040D-01
    74  7.3000000000000D-01 -3.6691487154093D-01  7.0321028914869D-01
    75  7.4000000000000D-01 -3.4530450246787D-01  5.9035565515734D-01
    76  7.5000000000000D-01 -3.2192185808653D-01  4.7962840278922D-01
    77  7.6000000000000D-01 -2.9718632885711D-01  3.7198061048198D-01
    78  7.7000000000000D-01 -2.7150951317542D-01  2.6831479997050D-01
    79  7.8000000000000D-01 -2.4529021242276D-01  1.6947278447852D-01
    80  7.9000000000000D-01 -2.1890970289297D-01  7.6225321434345D-02
    81  8.0000000000000D-01 -1.9272735114505D-01 -1.0737272818095D-02
    82  8.1000000000000D-01 -1.6707663435401D-01 -9.0813401562476D-02
    83  8.2000000000000D-01 -1.4226162123852D-01 -1.6349722998837D-01
    84  8.3000000000000D-01 -1.1855396223104D-01 -2.2838437917786D-01
    85  8.4000000000000D-01 -9.6190429815073D-02 -2.8517617930276D-01
    86  8.5000000000000D-01 -7.5371041498395D-02 -3.3368241081757D-01
    87  8.6000000000000D-01 -5.6257788843426D-02 -3.7382248516270D-01
    88  8.7000000000000D-01 -3.8973986472337D-02 -4.0562504033043D-01
    89  8.8000000000000D-01 -2.3604245149536D-02 -4.2922595122920D-01
    90  8.9000000000000D-01 -1.0195063068240D-02 -4.4486477973663D-01
    91  9.0000000000000D-01  1.2439805131202D-03 -4.5287971426558D-01
    92  9.1000000000000D-01  1.0738454968081D-02 -4.5370107319004D-01
    93  9.2000000000000D-01  1.8346766536673D-02 -4.4784347019441D-01
    94  9.3000000000000D-01  2.4157349356907D-02 -4.3589676213117D-01
    95  9.4000000000000D-01  2.8285412019076D-02 -4.1851592098442D-01
    96  9.5000000000000D-01  3.0869300049220D-02 -3.9640999054935D-01
    97  9.6000000000000D-01  3.2066541540956D-02 -3.7033030524722D-01
    98  9.7000000000000D-01  3.2049649054761D-02 -3.4105816297946D-01
    99  9.8000000000000D-01  3.1001755579722D-02 -3.0939215531840D-01
   100  9.9000000000000D-01  2.9112165954702D-02 -2.7613536699859D-01
   101  1.0000000000000D+00  2.6571907469990D-02 -2.4208266210844D-01
   102  1.0100000000000D+00  2.3569364431430D-02 -2.0800827662378D-01
   103  1.0200000000000D+00  2.0286081125889D-02 -1.7465393560670D-01
   104  1.0300000000000D+00  1.6892816172317D-02 -1.4271770929396D-01
   105  1.0400000000000D+00  1.3545928299267D-02 -1.1284381439919D-01
   106  1.0500000000000D+00  1.0384169422682D-02 -8.5613555989351D-02
   107  1.0600000000000D+00  7.5259556432828D-03 -6.1537591581610D-02
   108  1.0700000000000D+00  5.0671801916521D-03 -4.1049682005609D-02
   109  1.0800000000000D+00  3.0810938713526D-03 -2.4511768383466D-02
   110  1.0900000000000D+00  1.6024414079196D-03 -1.2118767997401D-02
   111  1.1000000000000D+00  6.8369846124904D-04 -4.2334252286345D-03
   112  1.1100000000000D+00  3.2246645363721D-04 -9.5319010614301D-04
   113  1.1200000000000D+00  1.0235032772053D-04 -9.5391258557564D-05
   114  1.1300000000000D+00 -2.0064478244670D-05  4.3665820487432D-06
   115  1.1400000000000D+00  6.6270679502162D-07 -4.8557305591032D-07
   116  1.1500000000000D+00  3.1710350271335D-06 -1.6893178535193D-06
   117  1.1600000000000D+00 -7.5808983116859D-07  1.6784094527317D-06
   118  1.1700000000000D+00  0.0000000000000D+00  0.0000000000000D+00
   119  1.1800000000000D+00  0.0000000000000D+00  0.0000000000000D+00
   120  1.1900000000000D+00  0.0000000000000D+00  0.0000000000000D+00
   121  1.2000000000000D+00  0.0000000000000D+00  0.0000000000000D+00
   122  1.2100000000000D+00  0.0000000000000D+00  0.0000000000000D+00
   123  1.2200000000000D+00  0.0000000000000D+00  0.0000000000000D+00
   124  1.2300000000000D+00  0.0000000000000D+00  0.0000000000000D+00
   125  1.2400000000000D+00  0.0000000000000D+00  0.0000000000000D+00
   126  1.2500000000000D+00  0.0000000000000D+00  0.0000000000000D+00
   127  1.2600000000000D+00  0.0000000000000D+00  0.0000000000000D+00
   128  1.2700000000000D+00  0.0000000000000D+00  0.0000000000000D+00
   129  1.2800000000000D+00  0.0000000000000D+00  0.0000000000000D+00
   130  1.2900000000000D+00  0.0000000000000D+00  0.0000000000000D+00
   131  1.3000000000000D+00  0.0000000000000D+00  0.0000000000000D+00
   132  1.3100000000000D+00  0.0000000000000D+00  0.0000000000000D+00
   133  1.3200000000000D+00  0.0000000000000D+00  0.0000000000000D+00
   134  1.3300000000000D+00  0.0000000000000D+00  0.0000000000000D+00
   135  1.3400000000000D+00  0.0000000000000D+00  0.0000000000000D+00
   136  1.3500000000000D+00  0.0000000000000D+00  0.0000000000000D+00
   137  1.3600000000000D+00  0.0000000000000D+00  0.0000000000000D+00
   138  1.3700000000000D+00  0.0000000000000D+00  0.0000000000000D+00
   139  1.3800000000000D+00  0.0000000000000D+00  0.0000000000000D+00
   140  1.3900000000000D+00  0.0000000000000D+00  0.0000000000000D+00
   141  1.4000000000000D+00  0.0000000000000D+00  0.0000000000000D+00
   142  1.4100000000000D+00  0.0000000000000D+00  0.0000000000000D+00
   143  1.4200000000000D+00  0.0000000000000D+00  0.0000000000000D+00
   144  1.4300000000000D+00  0.0000000000000D+00  0.0000000000000D+00
   145  1.4400000000000D+00  0.0000000000000D+00  0.0000000000000D+00
   146  1.4500000000000D+00  0.0000000000000D+00  0.0000000000000D+00
   147  1.4600000000000D+00  0.0000000000000D+00  0.0000000000000D+00
   148  1.4700000000000D+00  0.0000000000000D+00  0.0000000000000D+00
   149  1.4800000000000D+00  0.0000000000000D+00  0.0000000000000D+00
   150  1.4900000000000D+00  0.0000000000000D+00  0.0000000000000D+00
   151  1.5000000000000D+00  0.0000000000000D+00  0.0000000000000D+00
   152  1.5100000000000D+00  0.0000000000000D+00  0.0000000000000D+00
   153  1.5200000000000D+00  0.0000000000000D+00  0.0000000000000D+00
   154  1.5300000000000D+00  0.0000000000000D+00  0.0000000000000D+00
   155  1.5400000000000D+00  0.0000000000000D+00  0.0000000000000D+00
   156  1.5500000000000D+00  0.0000000000000D+00  0.0000000000000D+00
   157  1.5600000000000D+00  0.0000000000000D+00  0.0000000000000D+00
   158  1.5700000000000D+00  0.0000000000000D+00  0.0000000000000D+00
   159  1.5800000000000D+00  0.0000000000000D+00  0.0000000000000D+00
   160  1.5900000000000D+00  0.0000000000000D+00  0.0000000000000D+00
   161  1.6000000000000D+00  0.0000000000000D+00  0.0000000000000D+00
   162  1.6100000000000D+00  0.0000000000000D+00  0.0000000000000D+00
   163  1.6200000000000D+00  0.0000000000000D+00  0.0000000000000D+00
   164  1.6300000000000D+00  0.0000000000000D+00  0.0000000000000D+00
   165  1.6400000000000D+00  0.0000000000000D+00  0.0000000000000D+00
   166  1.6500000000000D+00  0.0000000000000D+00  0.0000000000000D+00
   167  1.6600000000000D+00  0.0000000000000D+00  0.0000000000000D+00
   168  1.6700000000000D+00  0.0000000000000D+00  0.0000000000000D+00
   169  1.6800000000000D+00  0.0000000000000D+00  0.0000000000000D+00
   170  1.6900000000000D+00  0.0000000000000D+00  0.0000000000000D+00
   171  1.7000000000000D+00  0.0000000000000D+00  0.0000000000000D+00
   172  1.7100000000000D+00  0.0000000000000D+00  0.0000000000000D+00
   173  1.7200000000000D+00  0.0000000000000D+00  0.0000000000000D+00
   174  1.7300000000000D+00  0.0000000000000D+00  0.0000000000000D+00
   175  1.7400000000000D+00  0.0000000000000D+00  0.0000000000000D+00
   176  1.7500000000000D+00  0.0000000000000D+00  0.0000000000000D+00
   177  1.7600000000000D+00  0.0000000000000D+00  0.0000000000000D+00
   178  1.7700000000000D+00  0.0000000000000D+00  0.0000000000000D+00
   179  1.7800000000000D+00  0.0000000000000D+00  0.0000000000000D+00
   180  1.7900000000000D+00  0.0000000000000D+00  0.0000000000000D+00
   181  1.8000000000000D+00  0.0000000000000D+00  0.0000000000000D+00
   182  1.8100000000000D+00  0.0000000000000D+00  0.0000000000000D+00
   183  1.8200000000000D+00  0.0000000000000D+00  0.0000000000000D+00
   184  1.8300000000000D+00  0.0000000000000D+00  0.0000000000000D+00
   185  1.8400000000000D+00  0.0000000000000D+00  0.0000000000000D+00
   186  1.8500000000000D+00  0.0000000000000D+00  0.0000000000000D+00
   187  1.8600000000000D+00  0.0000000000000D+00  0.0000000000000D+00
   188  1.8700000000000D+00  0.0000000000000D+00  0.0000000000000D+00
   189  1.8800000000000D+00  0.0000000000000D+00  0.0000000000000D+00
   190  1.8900000000000D+00  0.0000000000000D+00  0.0000000000000D+00
   191  1.9000000000000D+00  0.0000000000000D+00  0.0000000000000D+00
   192  1.9100000000000D+00  0.0000000000000D+00  0.0000000000000D+00
   193  1.9200000000000D+00  0.0000000000000D+00  0.0000000000000D+00
   194  1.9300000000000D+00  0.0000000000000D+00  0.0000000000000D+00
   195  1.9400000000000D+00  0.0000000000000D+00  0.0000000000000D+00
   196  1.9500000000000D+00  0.0000000000000D+00  0.0000000000000D+00
   197  1.9600000000000D+00  0.0000000000000D+00  0.0000000000000D+00
   198  1.9700000000000D+00  0.0000000000000D+00  0.0000000000000D+00
   199  1.9800000000000D+00  0.0000000000000D+00  0.0000000000000D+00
   200  1.9900000000000D+00  0.0000000000000D+00  0.0000000000000D+00
   201  2.0000000000000D+00  0.0000000000000D+00  0.0000000000000D+00
   202  2.0100000000000D+00  0.0000000000000D+00  0.0000000000000D+00
   203  2.0200000000000D+00  0.0000000000000D+00  0.0000000000000D+00
   204  2.0300000000000D+00  0.0000000000000D+00  0.0000000000000D+00
   205  2.0400000000000D+00  0.0000000000000D+00  0.0000000000000D+00
   206  2.0500000000000D+00  0.0000000000000D+00  0.0000000000000D+00
   207  2.0600000000000D+00  0.0000000000000D+00  0.0000000000000D+00
   208  2.0700000000000D+00  0.0000000000000D+00  0.0000000000000D+00
   209  2.0800000000000D+00  0.0000000000000D+00  0.0000000000000D+00
   210  2.0900000000000D+00  0.0000000000000D+00  0.0000000000000D+00
   211  2.1000000000000D+00  0.0000000000000D+00  0.0000000000000D+00
   212  2.1100000000000D+00  0.0000000000000D+00  0.0000000000000D+00
   213  2.1200000000000D+00  0.0000000000000D+00  0.0000000000000D+00
   214  2.1300000000000D+00  0.0000000000000D+00  0.0000000000000D+00
   215  2.1400000000000D+00  0.0000000000000D+00  0.0000000000000D+00
   216  2.1500000000000D+00  0.0000000000000D+00  0.0000000000000D+00
   217  2.1600000000000D+00  0.0000000000000D+00  0.0000000000000D+00
   218  2.1700000000000D+00  0.0000000000000D+00  0.0000000000000D+00
   219  2.1800000000000D+00  0.0000000000000D+00  0.0000000000000D+00
   220  2.1900000000000D+00  0.0000000000000D+00  0.0000000000000D+00
   221  2.2000000000000D+00  0.0000000000000D+00  0.0000000000000D+00
   222  2.2100000000000D+00  0.0000000000000D+00  0.0000000000000D+00
   223  2.2200000000000D+00  0.0000000000000D+00  0.0000000000000D+00
   224  2.2300000000000D+00  0.0000000000000D+00  0.0000000000000D+00
   225  2.2400000000000D+00  0.0000000000000D+00  0.0000000000000D+00
   226  2.2500000000000D+00  0.0000000000000D+00  0.0000000000000D+00
   227  2.2600000000000D+00  0.0000000000000D+00  0.0000000000000D+00
   228  2.2700000000000D+00  0.0000000000000D+00  0.0000000000000D+00
   229  2.2800000000000D+00  0.0000000000000D+00  0.0000000000000D+00
   230  2.2900000000000D+00  0.0000000000000D+00  0.0000000000000D+00
   231  2.3000000000000D+00  0.0000000000000D+00  0.0000000000000D+00
   232  2.3100000000000D+00  0.0000000000000D+00  0.0000000000000D+00
   233  2.3200000000000D+00  0.0000000000000D+00  0.0000000000000D+00
   234  2.3300000000000D+00  0.0000000000000D+00  0.0000000000000D+00
   235  2.3400000000000D+00  0.0000000000000D+00  0.0000000000000D+00
   236  2.3500000000000D+00  0.0000000000000D+00  0.0000000000000D+00
   237  2.3600000000000D+00  0.0000000000000D+00  0.0000000000000D+00
   238  2.3700000000000D+00  0.0000000000000D+00  0.0000000000000D+00
   239  2.3800000000000D+00  0.0000000000000D+00  0.0000000000000D+00
   240  2.3900000000000D+00  0.0000000000000D+00  0.0000000000000D+00
   241  2.4000000000000D+00  0.0000000000000D+00  0.0000000000000D+00
   242  2.4100000000000D+00  0.0000000000000D+00  0.0000000000000D+00
   243  2.4200000000000D+00  0.0000000000000D+00  0.0000000000000D+00
   244  2.4300000000000D+00  0.0000000000000D+00  0.0000000000000D+00
   245  2.4400000000000D+00  0.0000000000000D+00  0.0000000000000D+00
   246  2.4500000000000D+00  0.0000000000000D+00  0.0000000000000D+00
   247  2.4600000000000D+00  0.0000000000000D+00  0.0000000000000D+00
   248  2.4700000000000D+00  0.0000000000000D+00  0.0000000000000D+00
   249  2.4800000000000D+00  0.0000000000000D+00  0.0000000000000D+00
   250  2.4900000000000D+00  0.0000000000000D+00  0.0000000000000D+00
   251  2.5000000000000D+00  0.0000000000000D+00  0.0000000000000D+00
   252  2.5100000000000D+00  0.0000000000000D+00  0.0000000000000D+00
   253  2.5200000000000D+00  0.0000000000000D+00  0.0000000000000D+00
   254  2.5300000000000D+00  0.0000000000000D+00  0.0000000000000D+00
   255  2.5400000000000D+00  0.0000000000000D+00  0.0000000000000D+00
   256  2.5500000000000D+00  0.0000000000000D+00  0.0000000000000D+00
   257  2.5600000000000D+00  0.0000000000000D+00  0.0000000000000D+00
   258  2.5700000000000D+00  0.0000000000000D+00  0.0000000000000D+00
   259  2.5800000000000D+00  0.0000000000000D+00  0.0000000000000D+00
   260  2.5900000000000D+00  0.0000000000000D+00  0.0000000000000D+00
   261  2.6000000000000D+00  0.0000000000000D+00  0.0000000000000D+00
   262  2.6100000000000D+00  0.0000000000000D+00  0.0000000000000D+00
   263  2.6200000000000D+00  0.0000000000000D+00  0.0000000000000D+00
   264  2.6300000000000D+00  0.0000000000000D+00  0.0000000000000D+00
   265  2.6400000000000D+00  0.0000000000000D+00  0.0000000000000D+00
   266  2.6500000000000D+00  0.0000000000000D+00  0.0000000000000D+00
   267  2.6600000000000D+00  0.0000000000000D+00  0.0000000000000D+00
   268  2.6700000000000D+00  0.0000000000000D+00  0.0000000000000D+00
   269  2.6800000000000D+00  0.0000000000000D+00  0.0000000000000D+00
   270  2.6900000000000D+00  0.0000000000000D+00  0.0000000000000D+00
   271  2.7000000000000D+00  0.0000000000000D+00  0.0000000000000D+00
   272  2.7100000000000D+00  0.0000000000000D+00  0.0000000000000D+00
   273  2.7200000000000D+00  0.0000000000000D+00  0.0000000000000D+00
   274  2.7300000000000D+00  0.0000000000000D+00  0.0000000000000D+00
   275  2.7400000000000D+00  0.0000000000000D+00  0.0000000000000D+00
   276  2.7500000000000D+00  0.0000000000000D+00  0.0000000000000D+00
   277  2.7600000000000D+00  0.0000000000000D+00  0.0000000000000D+00
   278  2.7700000000000D+00  0.0000000000000D+00  0.0000000000000D+00
   279  2.7800000000000D+00  0.0000000000000D+00  0.0000000000000D+00
   280  2.7900000000000D+00  0.0000000000000D+00  0.0000000000000D+00
   281  2.8000000000000D+00  0.0000000000000D+00  0.0000000000000D+00
   282  2.8100000000000D+00  0.0000000000000D+00  0.0000000000000D+00
   283  2.8200000000000D+00  0.0000000000000D+00  0.0000000000000D+00
   284  2.8300000000000D+00  0.0000000000000D+00  0.0000000000000D+00
   285  2.8400000000000D+00  0.0000000000000D+00  0.0000000000000D+00
   286  2.8500000000000D+00  0.0000000000000D+00  0.0000000000000D+00
   287  2.8600000000000D+00  0.0000000000000D+00  0.0000000000000D+00
   288  2.8700000000000D+00  0.0000000000000D+00  0.0000000000000D+00
   289  2.8800000000000D+00  0.0000000000000D+00  0.0000000000000D+00
   290  2.8900000000000D+00  0.0000000000000D+00  0.0000000000000D+00
   291  2.9000000000000D+00  0.0000000000000D+00  0.0000000000000D+00
   292  2.9100000000000D+00  0.0000000000000D+00  0.0000000000000D+00
   293  2.9200000000000D+00  0.0000000000000D+00  0.0000000000000D+00
   294  2.9300000000000D+00  0.0000000000000D+00  0.0000000000000D+00
   295  2.9400000000000D+00  0.0000000000000D+00  0.0000000000000D+00
   296  2.9500000000000D+00  0.0000000000000D+00  0.0000000000000D+00
   297  2.9600000000000D+00  0.0000000000000D+00  0.0000000000000D+00
   298  2.9700000000000D+00  0.0000000000000D+00  0.0000000000000D+00
   299  2.9800000000000D+00  0.0000000000000D+00  0.0000000000000D+00
   300  2.9900000000000D+00  0.0000000000000D+00  0.0000000000000D+00
   301  3.0000000000000D+00  0.0000000000000D+00  0.0000000000000D+00
   302  3.0100000000000D+00  0.0000000000000D+00  0.0000000000000D+00
   303  3.0200000000000D+00  0.0000000000000D+00  0.0000000000000D+00
   304  3.0300000000000D+00  0.0000000000000D+00  0.0000000000000D+00
   305  3.0400000000000D+00  0.0000000000000D+00  0.0000000000000D+00
   306  3.0500000000000D+00  0.0000000000000D+00  0.0000000000000D+00
   307  3.0600000000000D+00  0.0000000000000D+00  0.0000000000000D+00
   308  3.0700000000000D+00  0.0000000000000D+00  0.0000000000000D+00
   309  3.0800000000000D+00  0.0000000000000D+00  0.0000000000000D+00
   310  3.0900000000000D+00  0.0000000000000D+00  0.0000000000000D+00
   311  3.1000000000000D+00  0.0000000000000D+00  0.0000000000000D+00
   312  3.1100000000000D+00  0.0000000000000D+00  0.0000000000000D+00
   313  3.1200000000000D+00  0.0000000000000D+00  0.0000000000000D+00
   314  3.1300000000000D+00  0.0000000000000D+00  0.0000000000000D+00
   315  3.1400000000000D+00  0.0000000000000D+00  0.0000000000000D+00
   316  3.1500000000000D+00  0.0000000000000D+00  0.0000000000000D+00
   317  3.1600000000000D+00  0.0000000000000D+00  0.0000000000000D+00
   318  3.1700000000000D+00  0.0000000000000D+00  0.0000000000000D+00
   319  3.1800000000000D+00  0.0000000000000D+00  0.0000000000000D+00
   320  3.1900000000000D+00  0.0000000000000D+00  0.0000000000000D+00
   321  3.2000000000000D+00  0.0000000000000D+00  0.0000000000000D+00
   322  3.2100000000000D+00  0.0000000000000D+00  0.0000000000000D+00
   323  3.2200000000000D+00  0.0000000000000D+00  0.0000000000000D+00
   324  3.2300000000000D+00  0.0000000000000D+00  0.0000000000000D+00
   325  3.2400000000000D+00  0.0000000000000D+00  0.0000000000000D+00
   326  3.2500000000000D+00  0.0000000000000D+00  0.0000000000000D+00
   327  3.2600000000000D+00  0.0000000000000D+00  0.0000000000000D+00
   328  3.2700000000000D+00  0.0000000000000D+00  0.0000000000000D+00
   329  3.2800000000000D+00  0.0000000000000D+00  0.0000000000000D+00
   330  3.2900000000000D+00  0.0000000000000D+00  0.0000000000000D+00
   331  3.3000000000000D+00  0.0000000000000D+00  0.0000000000000D+00
   332  3.3100000000000D+00  0.0000000000000D+00  0.0000000000000D+00
   333  3.3200000000000D+00  0.0000000000000D+00  0.0000000000000D+00
   334  3.3300000000000D+00  0.0000000000000D+00  0.0000000000000D+00
   335  3.3400000000000D+00  0.0000000000000D+00  0.0000000000000D+00
   336  3.3500000000000D+00  0.0000000000000D+00  0.0000000000000D+00
   337  3.3600000000000D+00  0.0000000000000D+00  0.0000000000000D+00
   338  3.3700000000000D+00  0.0000000000000D+00  0.0000000000000D+00
   339  3.3800000000000D+00  0.0000000000000D+00  0.0000000000000D+00
   340  3.3900000000000D+00  0.0000000000000D+00  0.0000000000000D+00
   341  3.4000000000000D+00  0.0000000000000D+00  0.0000000000000D+00
   342  3.4100000000000D+00  0.0000000000000D+00  0.0000000000000D+00
   343  3.4200000000000D+00  0.0000000000000D+00  0.0000000000000D+00
   344  3.4300000000000D+00  0.0000000000000D+00  0.0000000000000D+00
   345  3.4400000000000D+00  0.0000000000000D+00  0.0000000000000D+00
   346  3.4500000000000D+00  0.0000000000000D+00  0.0000000000000D+00
   347  3.4600000000000D+00  0.0000000000000D+00  0.0000000000000D+00
   348  3.4700000000000D+00  0.0000000000000D+00  0.0000000000000D+00
   349  3.4800000000000D+00  0.0000000000000D+00  0.0000000000000D+00
   350  3.4900000000000D+00  0.0000000000000D+00  0.0000000000000D+00
   351  3.5000000000000D+00  0.0000000000000D+00  0.0000000000000D+00
   352  3.5100000000000D+00  0.0000000000000D+00  0.0000000000000D+00
   353  3.5200000000000D+00  0.0000000000000D+00  0.0000000000000D+00
   354  3.5300000000000D+00  0.0000000000000D+00  0.0000000000000D+00
   355  3.5400000000000D+00  0.0000000000000D+00  0.0000000000000D+00
   356  3.5500000000000D+00  0.0000000000000D+00  0.0000000000000D+00
   357  3.5600000000000D+00  0.0000000000000D+00  0.0000000000000D+00
   358  3.5700000000000D+00  0.0000000000000D+00  0.0000000000000D+00
   359  3.5800000000000D+00  0.0000000000000D+00  0.0000000000000D+00
   360  3.5900000000000D+00  0.0000000000000D+00  0.0000000000000D+00
   361  3.6000000000000D+00  0.0000000000000D+00  0.0000000000000D+00
   362  3.6100000000000D+00  0.0000000000000D+00  0.0000000000000D+00
   363  3.6200000000000D+00  0.0000000000000D+00  0.0000000000000D+00
   364  3.6300000000000D+00  0.0000000000000D+00  0.0000000000000D+00
   365  3.6400000000000D+00  0.0000000000000D+00  0.0000000000000D+00
   366  3.6500000000000D+00  0.0000000000000D+00  0.0000000000000D+00
   367  3.6600000000000D+00  0.0000000000000D+00  0.0000000000000D+00
   368  3.6700000000000D+00  0.0000000000000D+00  0.0000000000000D+00
   369  3.6800000000000D+00  0.0000000000000D+00  0.0000000000000D+00
   370  3.6900000000000D+00  0.0000000000000D+00  0.0000000000000D+00
   371  3.7000000000000D+00  0.0000000000000D+00  0.0000000000000D+00
   372  3.7100000000000D+00  0.0000000000000D+00  0.0000000000000D+00
   373  3.7200000000000D+00  0.0000000000000D+00  0.0000000000000D+00
   374  3.7300000000000D+00  0.0000000000000D+00  0.0000000000000D+00
   375  3.7400000000000D+00  0.0000000000000D+00  0.0000000000000D+00
   376  3.7500000000000D+00  0.0000000000000D+00  0.0000000000000D+00
   377  3.7600000000000D+00  0.0000000000000D+00  0.0000000000000D+00
   378  3.7700000000000D+00  0.0000000000000D+00  0.0000000000000D+00
   379  3.7800000000000D+00  0.0000000000000D+00  0.0000000000000D+00
   380  3.7900000000000D+00  0.0000000000000D+00  0.0000000000000D+00
   381  3.8000000000000D+00  0.0000000000000D+00  0.0000000000000D+00
   382  3.8100000000000D+00  0.0000000000000D+00  0.0000000000000D+00
   383  3.8200000000000D+00  0.0000000000000D+00  0.0000000000000D+00
   384  3.8300000000000D+00  0.0000000000000D+00  0.0000000000000D+00
   385  3.8400000000000D+00  0.0000000000000D+00  0.0000000000000D+00
   386  3.8500000000000D+00  0.0000000000000D+00  0.0000000000000D+00
   387  3.8600000000000D+00  0.0000000000000D+00  0.0000000000000D+00
   388  3.8700000000000D+00  0.0000000000000D+00  0.0000000000000D+00
   389  3.8800000000000D+00  0.0000000000000D+00  0.0000000000000D+00
   390  3.8900000000000D+00  0.0000000000000D+00  0.0000000000000D+00
   391  3.9000000000000D+00  0.0000000000000D+00  0.0000000000000D+00
   392  3.9100000000000D+00  0.0000000000000D+00  0.0000000000000D+00
   393  3.9200000000000D+00  0.0000000000000D+00  0.0000000000000D+00
   394  3.9300000000000D+00  0.0000000000000D+00  0.0000000000000D+00
   395  3.9400000000000D+00  0.0000000000000D+00  0.0000000000000D+00
   396  3.9500000000000D+00  0.0000000000000D+00  0.0000000000000D+00
   397  3.9600000000000D+00  0.0000000000000D+00  0.0000000000000D+00
   398  3.9700000000000D+00  0.0000000000000D+00  0.0000000000000D+00
   399  3.9800000000000D+00  0.0000000000000D+00  0.0000000000000D+00
   400  3.9900000000000D+00  0.0000000000000D+00  0.0000000000000D+00
   401  4.0000000000000D+00  0.0000000000000D+00  0.0000000000000D+00
   402  4.0100000000000D+00  0.0000000000000D+00  0.0000000000000D+00
   403  4.0200000000000D+00  0.0000000000000D+00  0.0000000000000D+00
   404  4.0300000000000D+00  0.0000000000000D+00  0.0000000000000D+00
   405  4.0400000000000D+00  0.0000000000000D+00  0.0000000000000D+00
   406  4.0500000000000D+00  0.0000000000000D+00  0.0000000000000D+00
   407  4.0600000000000D+00  0.0000000000000D+00  0.0000000000000D+00
   408  4.0700000000000D+00  0.0000000000000D+00  0.0000000000000D+00
   409  4.0800000000000D+00  0.0000000000000D+00  0.0000000000000D+00
   410  4.0900000000000D+00  0.0000000000000D+00  0.0000000000000D+00
   411  4.1000000000000D+00  0.0000000000000D+00  0.0000000000000D+00
   412  4.1100000000000D+00  0.0000000000000D+00  0.0000000000000D+00
   413  4.1200000000000D+00  0.0000000000000D+00  0.0000000000000D+00
   414  4.1300000000000D+00  0.0000000000000D+00  0.0000000000000D+00
   415  4.1400000000000D+00  0.0000000000000D+00  0.0000000000000D+00
   416  4.1500000000000D+00  0.0000000000000D+00  0.0000000000000D+00
   417  4.1600000000000D+00  0.0000000000000D+00  0.0000000000000D+00
   418  4.1700000000000D+00  0.0000000000000D+00  0.0000000000000D+00
   419  4.1800000000000D+00  0.0000000000000D+00  0.0000000000000D+00
   420  4.1900000000000D+00  0.0000000000000D+00  0.0000000000000D+00
   421  4.2000000000000D+00  0.0000000000000D+00  0.0000000000000D+00
   422  4.2100000000000D+00  0.0000000000000D+00  0.0000000000000D+00