Mn    ONCVPSP-3.3.0  r_core=   1.41250   1.20960   1.61055
     25.0000     15.0000      220408    zatom,zion,pspd
     8       2   2     4   600     0    pspcod,pspxc,lmax,lloc,mmax,r2well
  5.99000000  0.00000000  0.00000000    rchrg fchrg qchrg
     2     2     2     0     0    nproj
     1     1           extension_switch
   0                         9.2212733828029D+00  1.5477095172920D+00
     1  0.0000000000000D+00  3.6002223424703D-10 -6.7485932814249D-10
     2  1.0000000000000D-02  7.9987533504453D-02  1.4901064098821D-03
     3  2.0000000000000D-02  1.5981580038016D-01  2.9674759363672D-03
     4  3.0000000000000D-02  2.3932535638386D-01  4.4204834105222D-03
     5  4.0000000000000D-02  3.1835640965014D-01  5.8397110456142D-03
     6  5.0000000000000D-02  3.9674866580555D-01  7.2190121839648D-03
     7  6.0000000000000D-02  4.7434119553573D-01  8.5565275923806D-03
     8  7.0000000000000D-02  5.5097233166383D-01  9.8556392871403D-03
     9  8.0000000000000D-02  6.2647960243870D-01  1.1125847544380D-02
    10  9.0000000000000D-02  7.0069970728729D-01  1.2383557583789D-02
    11  1.0000000000000D-01  7.7346854076299D-01  1.3652763395233D-02
    12  1.1000000000000D-01  8.4462126982411D-01  1.4965617300365D-02
    13  1.2000000000000D-01  9.1399246890993D-01  1.6362875094184D-02
    14  1.3000000000000D-01  9.8141631655380D-01  1.7894207983346D-02
    15  1.4000000000000D-01  1.0467268564880D+00  1.9618374015967D-02
    16  1.5000000000000D-01  1.1097583253640D+00  2.1603243268189D-02
    17  1.6000000000000D-01  1.1703455483388D+00  2.3925672700916D-02
    18  1.7000000000000D-01  1.2283244028793D+00  2.6671228310380D-02
    19  1.8000000000000D-01  1.2835323502062D+00  2.9933753952026D-02
    20  1.9000000000000D-01  1.3358090328690D+00  3.3814788001896D-02
    21  2.0000000000000D-01  1.3849969359979D+00  3.8422830815745D-02
    22  2.1000000000000D-01  1.4309421088481D+00  4.3872467735350D-02
    23  2.2000000000000D-01  1.4734949423346D+00  5.0283354156523D-02
    24  2.3000000000000D-01  1.5125109973639D+00  5.7779070895920D-02
    25  2.4000000000000D-01  1.5478518779169D+00  6.6485859755658D-02
    26  2.5000000000000D-01  1.5793861420254D+00  7.6531250769120D-02
    27  2.6000000000000D-01  1.6069902430347D+00  8.8042594100427D-02
    28  2.7000000000000D-01  1.6305494928496D+00  1.0114551094772D-01
    29  2.8000000000000D-01  1.6499590382489D+00  1.1596227905058D-01
    30  2.9000000000000D-01  1.6651248408108D+00  1.3261016951028D-01
    31  3.0000000000000D-01  1.6759646505448D+00  1.5119975258430D-01
    32  3.1000000000000D-01  1.6824089629676D+00  1.7183319090030D-01
    33  3.2000000000000D-01  1.6844019491039D+00  1.9460253914083D-01
    34  3.3000000000000D-01  1.6819023477436D+00  2.1958806966587D-01
    35  3.4000000000000D-01  1.6748843092396D+00  2.4685664376074D-01
    36  3.5000000000000D-01  1.6633381802020D+00  2.7646014821453D-01
    37  3.6000000000000D-01  1.6472712186261D+00  3.0843401674478D-01
    38  3.7000000000000D-01  1.6267082292854D+00  3.4279585538692D-01
    39  3.8000000000000D-01  1.6016921096341D+00  3.7954419035879D-01
    40  3.9000000000000D-01  1.5722842969858D+00  4.1865735609810D-01
    41  4.0000000000000D-01  1.5385651083659D+00  4.6009254015232D-01
    42  4.1000000000000D-01  1.5006339651773D+00  5.0378500038733D-01
    43  4.2000000000000D-01  1.4586094956589D+00  5.4964746857879D-01
    44  4.3000000000000D-01  1.4126295090497D+00  5.9756975286957D-01
    45  4.4000000000000D-01  1.3628508363982D+00  6.4741854983082D-01
    46  4.5000000000000D-01  1.3094490340583D+00  6.9903747496686D-01
    47  4.6000000000000D-01  1.2526179470871D+00  7.5224731847235D-01
    48  4.7000000000000D-01  1.1925691309939D+00  8.0684653090114D-01
    49  4.8000000000000D-01  1.1295311315743D+00  8.6261194116035D-01
    50  4.9000000000000D-01  1.0637486238816D+00  9.1929970692137D-01
    51  5.0000000000000D-01  9.9548141273446D-01  9.7664649516380D-01
    52  5.1000000000000D-01  9.2500329851785D-01  1.0343708881626D+00
    53  5.2000000000000D-01  8.5260081338827D-01  1.0921750078163D+00
    54  5.3000000000000D-01  7.7857183433433D-01  1.1497463488239D+00
    55  5.4000000000000D-01  7.0322408085601D-01  1.2067598088648D+00
    56  5.5000000000000D-01  6.2687350629186D-01  1.2628799016625D+00
    57  5.6000000000000D-01  5.4984259303359D-01  1.3177631366244D+00
    58  5.7000000000000D-01  4.7245856300844D-01  1.3710605466860D+00
    59  5.8000000000000D-01  3.9505151586297D-01  1.4224203440684D+00
    60  5.9000000000000D-01  3.1795250824432D-01  1.4714906818980D+00
    61  6.0000000000000D-01  2.4149158842297D-01  1.5179224980767D+00
    62  6.1000000000000D-01  1.6599580123608D-01  1.5613724164240D+00
    63  6.2000000000000D-01  9.1787178931727D-02  1.6015056789892D+00
    64  6.3000000000000D-01  1.9180733960611D-02  1.6379990825341D+00
    65  6.4000000000000D-01 -5.1517529918210D-02  1.6705438915615D+00
    66  6.5000000000000D-01 -1.2001257168244D-01  1.6988486998984D+00
    67  6.6000000000000D-01 -1.8602221569469D-01  1.7226422127572D+00
    68  6.7000000000000D-01 -2.4927898655334D-01  1.7416759214006D+00
    69  6.8000000000000D-01 -3.0953186005219D-01  1.7557266430179D+00
    70  6.9000000000000D-01 -3.6654791462428D-01  1.7645988991963D+00
    71  7.0000000000000D-01 -4.2011386827198D-01  1.7681271074311D+00
    72  7.1000000000000D-01 -4.7003748676956D-01  1.7661775614555D+00
    73  7.2000000000000D-01 -5.1614884985309D-01  1.7586501777735D+00
    74  7.3000000000000D-01 -5.5830146319226D-01  1.7454799876515D+00
    75  7.4000000000000D-01 -5.9637320514702D-01  1.7266383559267D+00
    76  7.5000000000000D-01 -6.3026709864639D-01  1.7021339103233D+00
    77  7.6000000000000D-01 -6.5991189997356D-01  1.6720131675000D+00
    78  7.7000000000000D-01 -6.8526249778952D-01  1.6363608447715D+00
    79  7.8000000000000D-01 -7.0630011735731D-01  1.5952998493095D+00
    80  7.9000000000000D-01 -7.2303232662985D-01  1.5489909396237D+00
    81  8.0000000000000D-01 -7.3549284262257D-01  1.4976320572192D+00
    82  8.1000000000000D-01 -7.4374113827821D-01  1.4414573294765D+00
    83  8.2000000000000D-01 -7.4786185184139D-01  1.3807357479893D+00
    84  8.3000000000000D-01 -7.4796400256721D-01  1.3157695297808D+00
    85  8.4000000000000D-01 -7.4418001837652D-01  1.2468921719729D+00
    86  8.5000000000000D-01 -7.3666458281986D-01  1.1744662135596D+00
    87  8.6000000000000D-01 -7.2559331040554D-01  1.0988807209182D+00
    88  8.7000000000000D-01 -7.1116126096470D-01  1.0205485165305D+00
    89  8.8000000000000D-01 -6.9358130525159D-01  9.3990317306181D-01
    90  8.9000000000000D-01 -6.7308235539226D-01  8.5739579741594D-01
    91  9.0000000000000D-01 -6.4990747508486D-01  7.7349163163165D-01
    92  9.1000000000000D-01 -6.2431188560325D-01  6.8866649947387D-01
    93  9.2000000000000D-01 -5.9656088465156D-01  6.0340312928303D-01
    94  9.3000000000000D-01 -5.6692769594571D-01  5.1818738505315D-01
    95  9.4000000000000D-01 -5.3569126805290D-01  4.3350443879875D-01
    96  9.5000000000000D-01 -5.0313404148566D-01  3.4983491801833D-01
    97  9.6000000000000D-01 -4.6953970332849D-01  2.6765106247407D-01
    98  9.7000000000000D-01 -4.3519094875663D-01  1.8741292455491D-01
    99  9.8000000000000D-01 -4.0036726868987D-01  1.0956464718082D-01
   100  9.9000000000000D-01 -3.6534278251279D-01  3.4530852540024D-02
   101  1.0000000000000D+00 -3.3038413428291D-01 -3.7286826072000D-02
   102  1.0100000000000D+00 -2.9574847015293D-01 -1.0551303840352D-01
   103  1.0200000000000D+00 -2.6168151381924D-01 -1.6980180823635D-01
   104  1.0300000000000D+00 -2.2841575580003D-01 -2.2983939398531D-01
   105  1.0400000000000D+00 -1.9616877106901D-01 -2.8534689409368D-01
   106  1.0500000000000D+00 -1.6514167819794D-01 -3.3608257499119D-01
   107  1.0600000000000D+00 -1.3551775165352D-01 -3.8184390220314D-01
   108  1.0700000000000D+00 -1.0746119721440D-01 -4.2246925833223D-01
   109  1.0800000000000D+00 -8.1116098725231D-02 -4.5783933488568D-01
   110  1.0900000000000D+00 -5.6605542660656D-02 -4.8787818815496D-01
   111  1.1000000000000D+00 -3.4030924867082D-02 -5.1255395324820D-01
   112  1.1100000000000D+00 -1.3471442074664D-02 -5.3187921365031D-01
   113  1.1200000000000D+00  5.0162314367006D-03 -5.4591102774905D-01
   114  1.1300000000000D+00  2.1398083231849D-02 -5.5475061670202D-01
   115  1.1400000000000D+00  3.5662721823538D-02 -5.5854272247740D-01
   116  1.1500000000000D+00  4.7821160772355D-02 -5.5747464789395D-01
   117  1.1600000000000D+00  5.7906435206784D-02 -5.5177499437084D-01
   118  1.1700000000000D+00  6.5973061308144D-02 -5.4171211975940D-01
   119  1.1800000000000D+00  7.2096337936840D-02 -5.2759231055131D-01
   120  1.1900000000000D+00  7.6371554412143D-02 -5.0975781369355D-01
   121  1.2000000000000D+00  7.8912857809990D-02 -4.8858414936542D-01
   122  1.2100000000000D+00  7.9852791447764D-02 -4.6447906105627D-01
   123  1.2200000000000D+00  7.9339811214134D-02 -4.3787677966562D-01
   124  1.2300000000000D+00  7.7533634347669D-02 -4.0922728471981D-01
   125  1.2400000000000D+00  7.4600217153799D-02 -3.7898515195839D-01
   126  1.2500000000000D+00  7.0708656681872D-02 -3.4760308831939D-01
   127  1.2600000000000D+00  6.6029745688361D-02 -3.1552948224591D-01
   128  1.2700000000000D+00  6.0733769975393D-02 -2.8320412252979D-01
   129  1.2800000000000D+00  5.4988572354089D-02 -2.5105456432316D-01
   130  1.2900000000000D+00  4.8957609755126D-02 -2.1949246425963D-01
   131  1.3000000000000D+00  4.2798122086333D-02 -1.8891015393969D-01
   132  1.3100000000000D+00  3.6659430159981D-02 -1.5967747978105D-01
   133  1.3200000000000D+00  3.0678593300119D-02 -1.3213284430722D-01
   134  1.3300000000000D+00  2.4989429507357D-02 -1.0660346452923D-01
   135  1.3400000000000D+00  1.9713732836092D-02 -8.3386654723236D-02
   136  1.3500000000000D+00  1.4902297043398D-02 -6.2621033073666D-02
   137  1.3600000000000D+00  1.0630117595325D-02 -4.4495872024993D-02
   138  1.3700000000000D+00  7.0381264642907D-03 -2.9347441899260D-02
   139  1.3800000000000D+00  4.1779638314096D-03 -1.7292040701788D-02
   140  1.3900000000000D+00  2.0548699744044D-03 -8.3561616761921D-03
   141  1.4000000000000D+00  7.6505582306239D-04 -2.8882839466687D-03
   142  1.4100000000000D+00  2.0178955158251D-04 -4.9709513273073D-04
   143  1.4200000000000D+00  2.5674144448359D-05  8.6929938171456D-05
   144  1.4300000000000D+00 -1.8455747862121D-08 -5.4594262876781D-06
   145  1.4400000000000D+00  2.3228769058941D-06 -4.0687550895032D-05
   146  1.4500000000000D+00  2.3162932363177D-07  4.4148396914944D-06
   147  1.4600000000000D+00  7.3504169127259D-08  4.5877352057427D-06
   148  1.4700000000000D+00 -3.5565805496636D-07  6.1949301761583D-07
   149  1.4800000000000D+00 -9.8510600060121D-08  1.7158792847855D-07
   150  1.4900000000000D+00  0.0000000000000D+00  0.0000000000000D+00
   151  1.5000000000000D+00  0.0000000000000D+00  0.0000000000000D+00
   152  1.5100000000000D+00  0.0000000000000D+00  0.0000000000000D+00
   153  1.5200000000000D+00  0.0000000000000D+00  0.0000000000000D+00
   154  1.5300000000000D+00  0.0000000000000D+00  0.0000000000000D+00
   155  1.5400000000000D+00  0.0000000000000D+00  0.0000000000000D+00
   156  1.5500000000000D+00  0.0000000000000D+00  0.0000000000000D+00
   157  1.5600000000000D+00  0.0000000000000D+00  0.0000000000000D+00
   158  1.5700000000000D+00  0.0000000000000D+00  0.0000000000000D+00
   159  1.5800000000000D+00  0.0000000000000D+00  0.0000000000000D+00
   160  1.5900000000000D+00  0.0000000000000D+00  0.0000000000000D+00
   161  1.6000000000000D+00  0.0000000000000D+00  0.0000000000000D+00
   162  1.6100000000000D+00  0.0000000000000D+00  0.0000000000000D+00
   163  1.6200000000000D+00  0.0000000000000D+00  0.0000000000000D+00
   164  1.6300000000000D+00  0.0000000000000D+00  0.0000000000000D+00
   165  1.6400000000000D+00  0.0000000000000D+00  0.0000000000000D+00
   166  1.6500000000000D+00  0.0000000000000D+00  0.0000000000000D+00
   167  1.6600000000000D+00  0.0000000000000D+00  0.0000000000000D+00
   168  1.6700000000000D+00  0.0000000000000D+00  0.0000000000000D+00
   169  1.6800000000000D+00  0.0000000000000D+00  0.0000000000000D+00
   170  1.6900000000000D+00  0.0000000000000D+00  0.0000000000000D+00
   171  1.7000000000000D+00  0.0000000000000D+00  0.0000000000000D+00
   172  1.7100000000000D+00  0.0000000000000D+00  0.0000000000000D+00
   173  1.7200000000000D+00  0.0000000000000D+00  0.0000000000000D+00
   174  1.7300000000000D+00  0.0000000000000D+00  0.0000000000000D+00
   175  1.7400000000000D+00  0.0000000000000D+00  0.0000000000000D+00
   176  1.7500000000000D+00  0.0000000000000D+00  0.0000000000000D+00
   177  1.7600000000000D+00  0.0000000000000D+00  0.0000000000000D+00
   178  1.7700000000000D+00  0.0000000000000D+00  0.0000000000000D+00
   179  1.7800000000000D+00  0.0000000000000D+00  0.0000000000000D+00
   180  1.7900000000000D+00  0.0000000000000D+00  0.0000000000000D+00
   181  1.8000000000000D+00  0.0000000000000D+00  0.0000000000000D+00
   182  1.8100000000000D+00  0.0000000000000D+00  0.0000000000000D+00
   183  1.8200000000000D+00  0.0000000000000D+00  0.0000000000000D+00
   184  1.8300000000000D+00  0.0000000000000D+00  0.0000000000000D+00
   185  1.8400000000000D+00  0.0000000000000D+00  0.0000000000000D+00
   186  1.8500000000000D+00  0.0000000000000D+00  0.0000000000000D+00
   187  1.8600000000000D+00  0.0000000000000D+00  0.0000000000000D+00
   188  1.8700000000000D+00  0.0000000000000D+00  0.0000000000000D+00
   189  1.8800000000000D+00  0.0000000000000D+00  0.0000000000000D+00
   190  1.8900000000000D+00  0.0000000000000D+00  0.0000000000000D+00
   191  1.9000000000000D+00  0.0000000000000D+00  0.0000000000000D+00
   192  1.9100000000000D+00  0.0000000000000D+00  0.0000000000000D+00
   193  1.9200000000000D+00  0.0000000000000D+00  0.0000000000000D+00
   194  1.9300000000000D+00  0.0000000000000D+00  0.0000000000000D+00
   195  1.9400000000000D+00  0.0000000000000D+00  0.0000000000000D+00
   196  1.9500000000000D+00  0.0000000000000D+00  0.0000000000000D+00
   197  1.9600000000000D+00  0.0000000000000D+00  0.0000000000000D+00
   198  1.9700000000000D+00  0.0000000000000D+00  0.0000000000000D+00
   199  1.9800000000000D+00  0.0000000000000D+00  0.0000000000000D+00
   200  1.9900000000000D+00  0.0000000000000D+00  0.0000000000000D+00
   201  2.0000000000000D+00  0.0000000000000D+00  0.0000000000000D+00
   202  2.0100000000000D+00  0.0000000000000D+00  0.0000000000000D+00
   203  2.0200000000000D+00  0.0000000000000D+00  0.0000000000000D+00
   204  2.0300000000000D+00  0.0000000000000D+00  0.0000000000000D+00
   205  2.0400000000000D+00  0.0000000000000D+00  0.0000000000000D+00
   206  2.0500000000000D+00  0.0000000000000D+00  0.0000000000000D+00
   207  2.0600000000000D+00  0.0000000000000D+00  0.0000000000000D+00
   208  2.0700000000000D+00  0.0000000000000D+00  0.0000000000000D+00
   209  2.0800000000000D+00  0.0000000000000D+00  0.0000000000000D+00
   210  2.0900000000000D+00  0.0000000000000D+00  0.0000000000000D+00
   211  2.1000000000000D+00  0.0000000000000D+00  0.0000000000000D+00
   212  2.1100000000000D+00  0.0000000000000D+00  0.0000000000000D+00
   213  2.1200000000000D+00  0.0000000000000D+00  0.0000000000000D+00
   214  2.1300000000000D+00  0.0000000000000D+00  0.0000000000000D+00
   215  2.1400000000000D+00  0.0000000000000D+00  0.0000000000000D+00
   216  2.1500000000000D+00  0.0000000000000D+00  0.0000000000000D+00
   217  2.1600000000000D+00  0.0000000000000D+00  0.0000000000000D+00
   218  2.1700000000000D+00  0.0000000000000D+00  0.0000000000000D+00
   219  2.1800000000000D+00  0.0000000000000D+00  0.0000000000000D+00
   220  2.1900000000000D+00  0.0000000000000D+00  0.0000000000000D+00
   221  2.2000000000000D+00  0.0000000000000D+00  0.0000000000000D+00
   222  2.2100000000000D+00  0.0000000000000D+00  0.0000000000000D+00
   223  2.2200000000000D+00  0.0000000000000D+00  0.0000000000000D+00
   224  2.2300000000000D+00  0.0000000000000D+00  0.0000000000000D+00
   225  2.2400000000000D+00  0.0000000000000D+00  0.0000000000000D+00
   226  2.2500000000000D+00  0.0000000000000D+00  0.0000000000000D+00
   227  2.2600000000000D+00  0.0000000000000D+00  0.0000000000000D+00
   228  2.2700000000000D+00  0.0000000000000D+00  0.0000000000000D+00
   229  2.2800000000000D+00  0.0000000000000D+00  0.0000000000000D+00
   230  2.2900000000000D+00  0.0000000000000D+00  0.0000000000000D+00
   231  2.3000000000000D+00  0.0000000000000D+00  0.0000000000000D+00
   232  2.3100000000000D+00  0.0000000000000D+00  0.0000000000000D+00
   233  2.3200000000000D+00  0.0000000000000D+00  0.0000000000000D+00
   234  2.3300000000000D+00  0.0000000000000D+00  0.0000000000000D+00
   235  2.3400000000000D+00  0.0000000000000D+00  0.0000000000000D+00
   236  2.3500000000000D+00  0.0000000000000D+00  0.0000000000000D+00
   237  2.3600000000000D+00  0.0000000000000D+00  0.0000000000000D+00
   238  2.3700000000000D+00  0.0000000000000D+00  0.0000000000000D+00
   239  2.3800000000000D+00  0.0000000000000D+00  0.0000000000000D+00
   240  2.3900000000000D+00  0.0000000000000D+00  0.0000000000000D+00
   241  2.4000000000000D+00  0.0000000000000D+00  0.0000000000000D+00
   242  2.4100000000000D+00  0.0000000000000D+00  0.0000000000000D+00
   243  2.4200000000000D+00  0.0000000000000D+00  0.0000000000000D+00
   244  2.4300000000000D+00  0.0000000000000D+00  0.0000000000000D+00
   245  2.4400000000000D+00  0.0000000000000D+00  0.0000000000000D+00
   246  2.4500000000000D+00  0.0000000000000D+00  0.0000000000000D+00
   247  2.4600000000000D+00  0.0000000000000D+00  0.0000000000000D+00
   248  2.4700000000000D+00  0.0000000000000D+00  0.0000000000000D+00
   249  2.4800000000000D+00  0.0000000000000D+00  0.0000000000000D+00
   250  2.4900000000000D+00  0.0000000000000D+00  0.0000000000000D+00
   251  2.5000000000000D+00  0.0000000000000D+00  0.0000000000000D+00
   252  2.5100000000000D+00  0.0000000000000D+00  0.0000000000000D+00
   253  2.5200000000000D+00  0.0000000000000D+00  0.0000000000000D+00
   254  2.5300000000000D+00  0.0000000000000D+00  0.0000000000000D+00
   255  2.5400000000000D+00  0.0000000000000D+00  0.0000000000000D+00
   256  2.5500000000000D+00  0.0000000000000D+00  0.0000000000000D+00
   257  2.5600000000000D+00  0.0000000000000D+00  0.0000000000000D+00
   258  2.5700000000000D+00  0.0000000000000D+00  0.0000000000000D+00
   259  2.5800000000000D+00  0.0000000000000D+00  0.0000000000000D+00
   260  2.5900000000000D+00  0.0000000000000D+00  0.0000000000000D+00
   261  2.6000000000000D+00  0.0000000000000D+00  0.0000000000000D+00
   262  2.6100000000000D+00  0.0000000000000D+00  0.0000000000000D+00
   263  2.6200000000000D+00  0.0000000000000D+00  0.0000000000000D+00
   264  2.6300000000000D+00  0.0000000000000D+00  0.0000000000000D+00
   265  2.6400000000000D+00  0.0000000000000D+00  0.0000000000000D+00
   266  2.6500000000000D+00  0.0000000000000D+00  0.0000000000000D+00
   267  2.6600000000000D+00  0.0000000000000D+00  0.0000000000000D+00
   268  2.6700000000000D+00  0.0000000000000D+00  0.0000000000000D+00
   269  2.6800000000000D+00  0.0000000000000D+00  0.0000000000000D+00
   270  2.6900000000000D+00  0.0000000000000D+00  0.0000000000000D+00
   271  2.7000000000000D+00  0.0000000000000D+00  0.0000000000000D+00
   272  2.7100000000000D+00  0.0000000000000D+00  0.0000000000000D+00
   273  2.7200000000000D+00  0.0000000000000D+00  0.0000000000000D+00
   274  2.7300000000000D+00  0.0000000000000D+00  0.0000000000000D+00
   275  2.7400000000000D+00  0.0000000000000D+00  0.0000000000000D+00
   276  2.7500000000000D+00  0.0000000000000D+00  0.0000000000000D+00
   277  2.7600000000000D+00  0.0000000000000D+00  0.0000000000000D+00
   278  2.7700000000000D+00  0.0000000000000D+00  0.0000000000000D+00
   279  2.7800000000000D+00  0.0000000000000D+00  0.0000000000000D+00
   280  2.7900000000000D+00  0.0000000000000D+00  0.0000000000000D+00
   281  2.8000000000000D+00  0.0000000000000D+00  0.0000000000000D+00
   282  2.8100000000000D+00  0.0000000000000D+00  0.0000000000000D+00
   283  2.8200000000000D+00  0.0000000000000D+00  0.0000000000000D+00
   284  2.8300000000000D+00  0.0000000000000D+00  0.0000000000000D+00
   285  2.8400000000000D+00  0.0000000000000D+00  0.0000000000000D+00
   286  2.8500000000000D+00  0.0000000000000D+00  0.0000000000000D+00
   287  2.8600000000000D+00  0.0000000000000D+00  0.0000000000000D+00
   288  2.8700000000000D+00  0.0000000000000D+00  0.0000000000000D+00
   289  2.8800000000000D+00  0.0000000000000D+00  0.0000000000000D+00
   290  2.8900000000000D+00  0.0000000000000D+00  0.0000000000000D+00
   291  2.9000000000000D+00  0.0000000000000D+00  0.0000000000000D+00
   292  2.9100000000000D+00  0.0000000000000D+00  0.0000000000000D+00
   293  2.9200000000000D+00  0.0000000000000D+00  0.0000000000000D+00
   294  2.9300000000000D+00  0.0000000000000D+00  0.0000000000000D+00
   295  2.9400000000000D+00  0.0000000000000D+00  0.0000000000000D+00
   296  2.9500000000000D+00  0.0000000000000D+00  0.0000000000000D+00
   297  2.9600000000000D+00  0.0000000000000D+00  0.0000000000000D+00
   298  2.9700000000000D+00  0.0000000000000D+00  0.0000000000000D+00
   299  2.9800000000000D+00  0.0000000000000D+00  0.0000000000000D+00
   300  2.9900000000000D+00  0.0000000000000D+00  0.0000000000000D+00
   301  3.0000000000000D+00  0.0000000000000D+00  0.0000000000000D+00
   302  3.0100000000000D+00  0.0000000000000D+00  0.0000000000000D+00
   303  3.0200000000000D+00  0.0000000000000D+00  0.0000000000000D+00
   304  3.0300000000000D+00  0.0000000000000D+00  0.0000000000000D+00
   305  3.0400000000000D+00  0.0000000000000D+00  0.0000000000000D+00
   306  3.0500000000000D+00  0.0000000000000D+00  0.0000000000000D+00
   307  3.0600000000000D+00  0.0000000000000D+00  0.0000000000000D+00
   308  3.0700000000000D+00  0.0000000000000D+00  0.0000000000000D+00
   309  3.0800000000000D+00  0.0000000000000D+00  0.0000000000000D+00
   310  3.0900000000000D+00  0.0000000000000D+00  0.0000000000000D+00
   311  3.1000000000000D+00  0.0000000000000D+00  0.0000000000000D+00
   312  3.1100000000000D+00  0.0000000000000D+00  0.0000000000000D+00
   313  3.1200000000000D+00  0.0000000000000D+00  0.0000000000000D+00
   314  3.1300000000000D+00  0.0000000000000D+00  0.0000000000000D+00
   315  3.1400000000000D+00  0.0000000000000D+00  0.0000000000000D+00
   316  3.1500000000000D+00  0.0000000000000D+00  0.0000000000000D+00
   317  3.1600000000000D+00  0.0000000000000D+00  0.0000000000000D+00
   318  3.1700000000000D+00  0.0000000000000D+00  0.0000000000000D+00
   319  3.1800000000000D+00  0.0000000000000D+00  0.0000000000000D+00
   320  3.1900000000000D+00  0.0000000000000D+00  0.0000000000000D+00
   321  3.2000000000000D+00  0.0000000000000D+00  0.0000000000000D+00
   322  3.2100000000000D+00  0.0000000000000D+00  0.0000000000000D+00
   323  3.2200000000000D+00  0.0000000000000D+00  0.0000000000000D+00
   324  3.2300000000000D+00  0.0000000000000D+00  0.0000000000000D+00
   325  3.2400000000000D+00  0.0000000000000D+00  0.0000000000000D+00
   326  3.2500000000000D+00  0.0000000000000D+00  0.0000000000000D+00
   327  3.2600000000000D+00  0.0000000000000D+00  0.0000000000000D+00
   328  3.2700000000000D+00  0.0000000000000D+00  0.0000000000000D+00
   329  3.2800000000000D+00  0.0000000000000D+00  0.0000000000000D+00
   330  3.2900000000000D+00  0.0000000000000D+00  0.0000000000000D+00
   331  3.3000000000000D+00  0.0000000000000D+00  0.0000000000000D+00
   332  3.3100000000000D+00  0.0000000000000D+00  0.0000000000000D+00
   333  3.3200000000000D+00  0.0000000000000D+00  0.0000000000000D+00
   334  3.3300000000000D+00  0.0000000000000D+00  0.0000000000000D+00
   335  3.3400000000000D+00  0.0000000000000D+00  0.0000000000000D+00
   336  3.3500000000000D+00  0.0000000000000D+00  0.0000000000000D+00
   337  3.3600000000000D+00  0.0000000000000D+00  0.0000000000000D+00
   338  3.3700000000000D+00  0.0000000000000D+00  0.0000000000000D+00
   339  3.3800000000000D+00  0.0000000000000D+00  0.0000000000000D+00
   340  3.3900000000000D+00  0.0000000000000D+00  0.0000000000000D+00
   341  3.4000000000000D+00  0.0000000000000D+00  0.0000000000000D+00
   342  3.4100000000000D+00  0.0000000000000D+00  0.0000000000000D+00
   343  3.4200000000000D+00  0.0000000000000D+00  0.0000000000000D+00
   344  3.4300000000000D+00  0.0000000000000D+00  0.0000000000000D+00
   345  3.4400000000000D+00  0.0000000000000D+00  0.0000000000000D+00
   346  3.4500000000000D+00  0.0000000000000D+00  0.0000000000000D+00
   347  3.4600000000000D+00  0.0000000000000D+00  0.0000000000000D+00
   348  3.4700000000000D+00  0.0000000000000D+00  0.0000000000000D+00
   349  3.4800000000000D+00  0.0000000000000D+00  0.0000000000000D+00
   350  3.4900000000000D+00  0.0000000000000D+00  0.0000000000000D+00
   351  3.5000000000000D+00  0.0000000000000D+00  0.0000000000000D+00
   352  3.5100000000000D+00  0.0000000000000D+00  0.0000000000000D+00
   353  3.5200000000000D+00  0.0000000000000D+00  0.0000000000000D+00
   354  3.5300000000000D+00  0.0000000000000D+00  0.0000000000000D+00
   355  3.5400000000000D+00  0.0000000000000D+00  0.0000000000000D+00
   356  3.5500000000000D+00  0.0000000000000D+00  0.0000000000000D+00
   357  3.5600000000000D+00  0.0000000000000D+00  0.0000000000000D+00
   358  3.5700000000000D+00  0.0000000000000D+00  0.0000000000000D+00
   359  3.5800000000000D+00  0.0000000000000D+00  0.0000000000000D+00
   360  3.5900000000000D+00  0.0000000000000D+00  0.0000000000000D+00
   361  3.6000000000000D+00  0.0000000000000D+00  0.0000000000000D+00
   362  3.6100000000000D+00  0.0000000000000D+00  0.0000000000000D+00
   363  3.6200000000000D+00  0.0000000000000D+00  0.0000000000000D+00
   364  3.6300000000000D+00  0.0000000000000D+00  0.0000000000000D+00
   365  3.6400000000000D+00  0.0000000000000D+00  0.0000000000000D+00
   366  3.6500000000000D+00  0.0000000000000D+00  0.0000000000000D+00
   367  3.6600000000000D+00  0.0000000000000D+00  0.0000000000000D+00
   368  3.6700000000000D+00  0.0000000000000D+00  0.0000000000000D+00
   369  3.6800000000000D+00  0.0000000000000D+00  0.0000000000000D+00
   370  3.6900000000000D+00  0.0000000000000D+00  0.0000000000000D+00
   371  3.7000000000000D+00  0.0000000000000D+00  0.0000000000000D+00
   372  3.7100000000000D+00  0.0000000000000D+00  0.0000000000000D+00
   373  3.7200000000000D+00  0.0000000000000D+00  0.0000000000000D+00
   374  3.7300000000000D+00  0.0000000000000D+00  0.0000000000000D+00
   375  3.7400000000000D+00  0.0000000000000D+00  0.0000000000000D+00
   376  3.7500000000000D+00  0.0000000000000D+00  0.0000000000000D+00
   377  3.7600000000000D+00  0.0000000000000D+00  0.0000000000000D+00
   378  3.7700000000000D+00  0.0000000000000D+00  0.0000000000000D+00
   379  3.7800000000000D+00  0.0000000000000D+00  0.0000000000000D+00
   380  3.7900000000000D+00  0.0000000000000D+00  0.0000000000000D+00
   381  3.8000000000000D+00  0.0000000000000D+00  0.0000000000000D+00
   382  3.8100000000000D+00  0.0000000000000D+00  0.0000000000000D+00
   383  3.8200000000000D+00  0.0000000000000D+00  0.0000000000000D+00
   384  3.8300000000000D+00  0.0000000000000D+00  0.0000000000000D+00
   385  3.8400000000000D+00  0.0000000000000D+00  0.0000000000000D+00
   386  3.8500000000000D+00  0.0000000000000D+00  0.0000000000000D+00
   387  3.8600000000000D+00  0.0000000000000D+00  0.0000000000000D+00
   388  3.8700000000000D+00  0.0000000000000D+00  0.0000000000000D+00
   389  3.8800000000000D+00  0.0000000000000D+00  0.0000000000000D+00
   390  3.8900000000000D+00  0.0000000000000D+00  0.0000000000000D+00
   391  3.9000000000000D+00  0.0000000000000D+00  0.0000000000000D+00
   392  3.9100000000000D+00  0.0000000000000D+00  0.0000000000000D+00
   393  3.9200000000000D+00  0.0000000000000D+00  0.0000000000000D+00
   394  3.9300000000000D+00  0.0000000000000D+00  0.0000000000000D+00
   395  3.9400000000000D+00  0.0000000000000D+00  0.0000000000000D+00
   396  3.9500000000000D+00  0.0000000000000D+00  0.0000000000000D+00
   397  3.9600000000000D+00  0.0000000000000D+00  0.0000000000000D+00
   398  3.9700000000000D+00  0.0000000000000D+00  0.0000000000000D+00
   399  3.9800000000000D+00  0.0000000000000D+00  0.0000000000000D+00
   400  3.9900000000000D+00  0.0000000000000D+00  0.0000000000000D+00
   401  4.0000000000000D+00  0.0000000000000D+00  0.0000000000000D+00
   402  4.0100000000000D+00  0.0000000000000D+00  0.0000000000000D+00
   403  4.0200000000000D+00  0.0000000000000D+00  0.0000000000000D+00
   404  4.0300000000000D+00  0.0000000000000D+00  0.0000000000000D+00
   405  4.0400000000000D+00  0.0000000000000D+00  0.0000000000000D+00
   406  4.0500000000000D+00  0.0000000000000D+00  0.0000000000000D+00
   407  4.0600000000000D+00  0.0000000000000D+00  0.0000000000000D+00
   408  4.0700000000000D+00  0.0000000000000D+00  0.0000000000000D+00
   409  4.0800000000000D+00  0.0000000000000D+00  0.0000000000000D+00
   410  4.0900000000000D+00  0.0000000000000D+00  0.0000000000000D+00
   411  4.1000000000000D+00  0.0000000000000D+00  0.0000000000000D+00
   412  4.1100000000000D+00  0.0000000000000D+00  0.0000000000000D+00
   413  4.1200000000000D+00  0.0000000000000D+00  0.0000000000000D+00
   414  4.1300000000000D+00  0.0000000000000D+00  0.0000000000000D+00
   415  4.1400000000000D+00  0.0000000000000D+00  0.0000000000000D+00
   416  4.1500000000000D+00  0.0000000000000D+00  0.0000000000000D+00
   417  4.1600000000000D+00  0.0000000000000D+00  0.0000000000000D+00
   418  4.1700000000000D+00  0.0000000000000D+00  0.0000000000000D+00
   419  4.1800000000000D+00  0.0000000000000D+00  0.0000000000000D+00
   420  4.1900000000000D+00  0.0000000000000D+00  0.0000000000000D+00
   421  4.2000000000000D+00  0.0000000000000D+00  0.0000000000000D+00
   422  4.2100000000000D+00  0.0000000000000D+00  0.0000000000000D+00