W     ONCVPSP-3.3.0  r_core=   1.46442   1.51778   1.36327   1.71007
     74.0000     28.0000      220408    zatom,zion,pspd
     8       2   3     4   600     0    pspcod,pspxc,lmax,lloc,mmax,r2well
  5.99000000  0.00000000  0.00000000    rchrg fchrg qchrg
     2     2     2     2     0    nproj
     1     1           extension_switch
   0                         1.5602821448071D+01  1.3145176384420D+00
     1  0.0000000000000D+00  2.1472751354779D-10 -6.3222066470914D-10
     2  1.0000000000000D-02  5.7883478450806D-02 -1.0434968168035D-02
     3  2.0000000000000D-02  1.1572247012412D-01 -2.0942984678753D-02
     4  3.0000000000000D-02  1.7347204235485D-01 -3.1595496715901D-02
     5  4.0000000000000D-02  2.3108637656244D-01 -4.2460766717950D-02
     6  5.0000000000000D-02  2.8851833988757D-01 -5.3602323775692D-02
     7  6.0000000000000D-02  3.4571907418932D-01 -6.5077467103846D-02
     8  7.0000000000000D-02  4.0263760793590D-01 -7.6935838198237D-02
     9  8.0000000000000D-02  4.5922049630744D-01 -8.9218077657881D-02
    10  9.0000000000000D-02  5.1541149456442D-01 -1.0195458187114D-01
    11  1.0000000000000D-01  5.7115126942180D-01 -1.1516437384229D-01
    12  1.1000000000000D-01  6.2637715281054D-01 -1.2885410137822D-01
    13  1.2000000000000D-01  6.8102294200637D-01 -1.4301717467218D-01
    14  1.3000000000000D-01  7.3501874966533D-01 -1.5763305402232D-01
    15  1.4000000000000D-01  7.8829090682928D-01 -1.7266669701891D-01
    16  1.5000000000000D-01  8.4076192145650D-01 -1.8806817303556D-01
    17  1.6000000000000D-01  8.9235049449764D-01 -2.0377245128115D-01
    18  1.7000000000000D-01  9.4297159497889D-01 -2.1969936702090D-01
    19  1.8000000000000D-01  9.9253659497850D-01 -2.3575376887471D-01
    20  1.9000000000000D-01  1.0409534647932D+00 -2.5182584835875D-01
    21  2.0000000000000D-01  1.0881270279944D+00 -2.6779165107147D-01
    22  2.1000000000000D-01  1.1339592754725D+00 -2.8351376714954D-01
    23  2.2000000000000D-01  1.1783497369725D+00 -2.9884219685032D-01
    24  2.3000000000000D-01  1.2211959080305D+00 -3.1361538537040D-01
    25  2.4000000000000D-01  1.2623937296466D+00 -3.2766141929940D-01
    26  2.5000000000000D-01  1.3018381174687D+00 -3.4079937545162D-01
    27  2.6000000000000D-01  1.3394235367270D+00 -3.5284081122838D-01
    28  2.7000000000000D-01  1.3750446186506D+00 -3.6359138415819D-01
    29  2.8000000000000D-01  1.4085968136233D+00 -3.7285258685205D-01
    30  2.9000000000000D-01  1.4399770758987D+00 -3.8042358231355D-01
    31  3.0000000000000D-01  1.4690845742989D+00 -3.8610312336760D-01
    32  3.1000000000000D-01  1.4958214229725D+00 -3.8969153893335D-01
    33  3.2000000000000D-01  1.5200934259854D+00 -3.9099276897342D-01
    34  3.3000000000000D-01  1.5418108292730D+00 -3.8981642921599D-01
    35  3.4000000000000D-01  1.5608890732887D+00 -3.8597988617444D-01
    36  3.5000000000000D-01  1.5772495395480D+00 -3.7931032259089D-01
    37  3.6000000000000D-01  1.5908202841967D+00 -3.6964677320922D-01
    38  3.7000000000000D-01  1.6015367517143D+00 -3.5684211074532D-01
    39  3.8000000000000D-01  1.6093424619140D+00 -3.4076496206976D-01
    40  3.9000000000000D-01  1.6141896635122D+00 -3.2130153495292D-01
    41  4.0000000000000D-01  1.6160399477125D+00 -2.9835733624281D-01
    42  4.1000000000000D-01  1.6148648154832D+00 -2.7185876305192D-01
    43  4.2000000000000D-01  1.6106461925043D+00 -2.4175454941408D-01
    44  4.3000000000000D-01  1.6033768861100D+00 -2.0801705193407D-01
    45  4.4000000000000D-01  1.5930609789636D+00 -1.7064335918087D-01
    46  4.5000000000000D-01  1.5797141546626D+00 -1.2965621096377D-01
    47  4.6000000000000D-01  1.5633639509838D+00 -8.5104715167054D-02
    48  4.7000000000000D-01  1.5440499370330D+00 -3.7064851492317D-02
    49  4.8000000000000D-01  1.5218238111655D+00  1.4360246744791D-02
    50  4.9000000000000D-01  1.4967494171735D+00  6.9040239712078D-02
    51  5.0000000000000D-01  1.4689026769055D+00  1.2681776200213D-01
    52  5.1000000000000D-01  1.4383714381705D+00  1.8750884029344D-01
    53  5.2000000000000D-01  1.4052552374927D+00  2.5090354847609D-01
    54  5.3000000000000D-01  1.3696649780033D+00  3.1676689881813D-01
    55  5.4000000000000D-01  1.3317225234890D+00  3.8483996555872D-01
    56  5.5000000000000D-01  1.2915602103443D+00  4.5484123512949D-01
    57  5.6000000000000D-01  1.2493202799033D+00  5.2646817504023D-01
    58  5.7000000000000D-01  1.2051542343350D+00  5.9939901134138D-01
    59  5.8000000000000D-01  1.1592221199787D+00  6.7329470252145D-01
    60  5.9000000000000D-01  1.1116917426637D+00  7.4780109571619D-01
    61  6.0000000000000D-01  1.0627378201879D+00  8.2255124924186D-01
    62  6.1000000000000D-01  1.0125410777267D+00  8.9716790370982D-01
    63  6.2000000000000D-01  9.6128729249136D-01  9.7126608237605D-01
    64  6.3000000000000D-01  9.0916629445695D-01  1.0444557999292D+00
    65  6.4000000000000D-01  8.5637093042276D-01  1.1163448576432D+00
    66  6.5000000000000D-01  8.0309599905218D-01  1.1865417017403D+00
    67  6.6000000000000D-01  7.4953716485837D-01  1.2546583209200D+00
    68  6.7000000000000D-01  6.9588985935334D-01  1.3203131583456D+00
    69  6.8000000000000D-01  6.4234817775767D-01  1.3831340129292D+00
    70  6.9000000000000D-01  5.8910377977516D-01  1.4427609045390D+00
    71  7.0000000000000D-01  5.3634480296765D-01  1.4988488777730D+00
    72  7.1000000000000D-01  4.8425479721976D-01  1.5510707192003D+00
    73  7.2000000000000D-01  4.3301168866203D-01  1.5991195634625D+00
    74  7.3000000000000D-01  3.8278678122251D-01  1.6427113643687D+00
    75  7.4000000000000D-01  3.3374380370331D-01  1.6815872080774D+00
    76  7.5000000000000D-01  2.8603800993229D-01  1.7155154466572D+00
    77  7.6000000000000D-01  2.3981533912290D-01  1.7442936317305D+00
    78  7.7000000000000D-01  1.9521164309040D-01  1.7677502295195D+00
    79  7.8000000000000D-01  1.5235198642440D-01  1.7857461004369D+00
    80  7.9000000000000D-01  1.1135002511328D-01  1.7981757283437D+00
    81  8.0000000000000D-01  7.2307468452900D-02  1.8049681867643D+00
    82  8.1000000000000D-01  3.5313628367519D-02  1.8060878316345D+00
    83  8.2000000000000D-01  4.4505952137800D-04  1.8015347125836D+00
    84  8.3000000000000D-01 -3.2234707182727D-02  1.7913446972619D+00
    85  8.4000000000000D-01 -6.2675335930870D-02  1.7755893058209D+00
    86  8.5000000000000D-01 -9.0839761192922D-02  1.7543752552943D+00
    87  8.6000000000000D-01 -1.1670416666628D-01  1.7278437162944D+00
    88  8.7000000000000D-01 -1.4025786869305D-01  1.6961692871039D+00
    89  8.8000000000000D-01 -1.6150310571355D-01  1.6595586928828D+00
    90  8.9000000000000D-01 -1.8045473614407D-01  1.6182492202899D+00
    91  9.0000000000000D-01 -1.9713984787133D-01  1.5725069003249D+00
    92  9.1000000000000D-01 -2.1159728333025D-01  1.5226244545900D+00
    93  9.2000000000000D-01 -2.2387708487028D-01  1.4689190224363D+00
    94  9.3000000000000D-01 -2.3403986580778D-01  1.4117296885670D+00
    95  9.4000000000000D-01 -2.4215611320715D-01  1.3514148326090D+00
    96  9.5000000000000D-01 -2.4830542901118D-01  1.2883493238777D+00
    97  9.6000000000000D-01 -2.5257571666666D-01  1.2229215860908D+00
    98  9.7000000000000D-01 -2.5506232083971D-01  1.1555305580592D+00
    99  9.8000000000000D-01 -2.5586712818968D-01  1.0865825774039D+00
   100  9.9000000000000D-01 -2.5509763746893D-01  1.0164882151158D+00
   101  1.0000000000000D+00 -2.5286600743132D-01  9.4565908926457D-01
   102  1.0100000000000D+00 -2.4928809116440D-01  8.7450468637444D-01
   103  1.0200000000000D+00 -2.4448246550067D-01  8.0342921888584D-01
   104  1.0300000000000D+00 -2.3856946413160D-01  7.3282854680447D-01
   105  1.0400000000000D+00 -2.3167022291327D-01  6.6308719094886D-01
   106  1.0500000000000D+00 -2.2390574564154D-01  5.9457546429604D-01
   107  1.0600000000000D+00 -2.1539599828140D-01  5.2764674673044D-01
   108  1.0700000000000D+00 -2.0625903924578D-01  4.6263492698939D-01
   109  1.0800000000000D+00 -1.9661019287782D-01  3.9985203393283D-01
   110  1.0900000000000D+00 -1.8656127277644D-01  3.3958607735447D-01
   111  1.1000000000000D+00 -1.7621986097066D-01  2.8209911624128D-01
   112  1.1100000000000D+00 -1.6568864834035D-01  2.2762557019851D-01
   113  1.1200000000000D+00 -1.5506484087942D-01  1.7637078689981D-01
   114  1.1300000000000D+00 -1.4443963582923D-01  1.2850987640525D-01
   115  1.1400000000000D+00 -1.3389777068101D-01  8.4186819573584D-02
   116  1.1500000000000D+00 -1.2351714738596D-01  4.3513855493099D-02
   117  1.1600000000000D+00 -1.1336853308781D-01  6.5711493048193D-03
   118  1.1700000000000D+00 -1.0351533814454D-01 -2.6593260109971D-02
   119  1.1800000000000D+00 -9.4013470939350D-02 -5.5963237459741D-02
   120  1.1900000000000D+00 -8.4911268343490D-02 -8.1554060442305D-02
   121  1.2000000000000D+00 -7.6249499796076D-02 -1.0341167132108D-01
   122  1.2100000000000D+00 -6.8061442220441D-02 -1.2161168331976D-01
   123  1.2200000000000D+00 -6.0373021976590D-02 -1.3625815790717D-01
   124  1.2300000000000D+00 -5.3203019353599D-02 -1.4748217135290D-01
   125  1.2400000000000D+00 -4.6563330737061D-02 -1.5544019018481D-01
   126  1.2500000000000D+00 -4.0459282336162D-02 -1.6031227930771D-01
   127  1.2600000000000D+00 -3.4889989096842D-02 -1.6230016733991D-01
   128  1.2700000000000D+00 -2.9848752048260D-02 -1.6162519498815D-01
   129  1.2800000000000D+00 -2.5323486456105D-02 -1.5852617507256D-01
   130  1.2900000000000D+00 -2.1297173026472D-02 -1.5325719311948D-01
   131  1.3000000000000D+00 -1.7748324207357D-02 -1.4608537810921D-01
   132  1.3100000000000D+00 -1.4651457092004D-02 -1.3728867453945D-01
   133  1.3200000000000D+00 -1.1977562176109D-02 -1.2715365720958D-01
   134  1.3300000000000D+00 -9.6945758064405D-03 -1.1597334593779D-01
   135  1.3400000000000D+00 -7.7677805501590D-03 -1.0404535238000D-01
   136  1.3500000000000D+00 -6.1603917330381D-03 -9.1669201304015D-02
   137  1.3600000000000D+00 -4.8335458126135D-03 -7.9146315563920D-02
   138  1.3700000000000D+00 -3.7469601673681D-03 -6.6776998696833D-02
   139  1.3800000000000D+00 -2.8612091838819D-03 -5.4850035061906D-02
   140  1.3900000000000D+00 -2.1398755926208D-03 -4.3633230541226D-02
   141  1.4000000000000D+00 -1.5519710767986D-03 -3.3362931503926D-02
   142  1.4100000000000D+00 -1.0721833106097D-03 -2.4243424398163D-02
   143  1.4200000000000D+00 -6.8140677542299D-04 -1.6451150124789D-02
   144  1.4300000000000D+00 -3.6684454112511D-04 -1.0103438365960D-02
   145  1.4400000000000D+00 -1.2375988475444D-04 -5.2763631233690D-03
   146  1.4500000000000D+00  5.1085046332902D-05 -2.2079071260409D-03
   147  1.4600000000000D+00  1.4276932068844D-04 -7.6057708618501D-04
   148  1.4700000000000D+00  1.1176796340149D-04 -2.0475511405121D-04
   149  1.4800000000000D+00  1.6152046034022D-05 -1.5076026386410D-05
   150  1.4900000000000D+00 -1.7947292656321D-05  1.0403947082511D-05
   151  1.5000000000000D+00  1.9556797370586D-07 -2.2420533418793D-07
   152  1.5100000000000D+00  3.7168715400861D-06 -3.6938653315485D-06
   153  1.5200000000000D+00 -1.7892266033016D-07  5.5585651381537D-07
   154  1.5300000000000D+00 -3.4477970688231D-07  1.0711222689638D-06
   155  1.5400000000000D+00  0.0000000000000D+00  0.0000000000000D+00
   156  1.5500000000000D+00  0.0000000000000D+00  0.0000000000000D+00
   157  1.5600000000000D+00  0.0000000000000D+00  0.0000000000000D+00
   158  1.5700000000000D+00  0.0000000000000D+00  0.0000000000000D+00
   159  1.5800000000000D+00  0.0000000000000D+00  0.0000000000000D+00
   160  1.5900000000000D+00  0.0000000000000D+00  0.0000000000000D+00
   161  1.6000000000000D+00  0.0000000000000D+00  0.0000000000000D+00
   162  1.6100000000000D+00  0.0000000000000D+00  0.0000000000000D+00
   163  1.6200000000000D+00  0.0000000000000D+00  0.0000000000000D+00
   164  1.6300000000000D+00  0.0000000000000D+00  0.0000000000000D+00
   165  1.6400000000000D+00  0.0000000000000D+00  0.0000000000000D+00
   166  1.6500000000000D+00  0.0000000000000D+00  0.0000000000000D+00
   167  1.6600000000000D+00  0.0000000000000D+00  0.0000000000000D+00
   168  1.6700000000000D+00  0.0000000000000D+00  0.0000000000000D+00
   169  1.6800000000000D+00  0.0000000000000D+00  0.0000000000000D+00
   170  1.6900000000000D+00  0.0000000000000D+00  0.0000000000000D+00
   171  1.7000000000000D+00  0.0000000000000D+00  0.0000000000000D+00
   172  1.7100000000000D+00  0.0000000000000D+00  0.0000000000000D+00
   173  1.7200000000000D+00  0.0000000000000D+00  0.0000000000000D+00
   174  1.7300000000000D+00  0.0000000000000D+00  0.0000000000000D+00
   175  1.7400000000000D+00  0.0000000000000D+00  0.0000000000000D+00
   176  1.7500000000000D+00  0.0000000000000D+00  0.0000000000000D+00
   177  1.7600000000000D+00  0.0000000000000D+00  0.0000000000000D+00
   178  1.7700000000000D+00  0.0000000000000D+00  0.0000000000000D+00
   179  1.7800000000000D+00  0.0000000000000D+00  0.0000000000000D+00
   180  1.7900000000000D+00  0.0000000000000D+00  0.0000000000000D+00
   181  1.8000000000000D+00  0.0000000000000D+00  0.0000000000000D+00
   182  1.8100000000000D+00  0.0000000000000D+00  0.0000000000000D+00
   183  1.8200000000000D+00  0.0000000000000D+00  0.0000000000000D+00
   184  1.8300000000000D+00  0.0000000000000D+00  0.0000000000000D+00
   185  1.8400000000000D+00  0.0000000000000D+00  0.0000000000000D+00
   186  1.8500000000000D+00  0.0000000000000D+00  0.0000000000000D+00
   187  1.8600000000000D+00  0.0000000000000D+00  0.0000000000000D+00
   188  1.8700000000000D+00  0.0000000000000D+00  0.0000000000000D+00
   189  1.8800000000000D+00  0.0000000000000D+00  0.0000000000000D+00
   190  1.8900000000000D+00  0.0000000000000D+00  0.0000000000000D+00
   191  1.9000000000000D+00  0.0000000000000D+00  0.0000000000000D+00
   192  1.9100000000000D+00  0.0000000000000D+00  0.0000000000000D+00
   193  1.9200000000000D+00  0.0000000000000D+00  0.0000000000000D+00
   194  1.9300000000000D+00  0.0000000000000D+00  0.0000000000000D+00
   195  1.9400000000000D+00  0.0000000000000D+00  0.0000000000000D+00
   196  1.9500000000000D+00  0.0000000000000D+00  0.0000000000000D+00
   197  1.9600000000000D+00  0.0000000000000D+00  0.0000000000000D+00
   198  1.9700000000000D+00  0.0000000000000D+00  0.0000000000000D+00
   199  1.9800000000000D+00  0.0000000000000D+00  0.0000000000000D+00
   200  1.9900000000000D+00  0.0000000000000D+00  0.0000000000000D+00
   201  2.0000000000000D+00  0.0000000000000D+00  0.0000000000000D+00
   202  2.0100000000000D+00  0.0000000000000D+00  0.0000000000000D+00
   203  2.0200000000000D+00  0.0000000000000D+00  0.0000000000000D+00
   204  2.0300000000000D+00  0.0000000000000D+00  0.0000000000000D+00
   205  2.0400000000000D+00  0.0000000000000D+00  0.0000000000000D+00
   206  2.0500000000000D+00  0.0000000000000D+00  0.0000000000000D+00
   207  2.0600000000000D+00  0.0000000000000D+00  0.0000000000000D+00
   208  2.0700000000000D+00  0.0000000000000D+00  0.0000000000000D+00
   209  2.0800000000000D+00  0.0000000000000D+00  0.0000000000000D+00
   210  2.0900000000000D+00  0.0000000000000D+00  0.0000000000000D+00
   211  2.1000000000000D+00  0.0000000000000D+00  0.0000000000000D+00
   212  2.1100000000000D+00  0.0000000000000D+00  0.0000000000000D+00
   213  2.1200000000000D+00  0.0000000000000D+00  0.0000000000000D+00
   214  2.1300000000000D+00  0.0000000000000D+00  0.0000000000000D+00
   215  2.1400000000000D+00  0.0000000000000D+00  0.0000000000000D+00
   216  2.1500000000000D+00  0.0000000000000D+00  0.0000000000000D+00
   217  2.1600000000000D+00  0.0000000000000D+00  0.0000000000000D+00
   218  2.1700000000000D+00  0.0000000000000D+00  0.0000000000000D+00
   219  2.1800000000000D+00  0.0000000000000D+00  0.0000000000000D+00
   220  2.1900000000000D+00  0.0000000000000D+00  0.0000000000000D+00
   221  2.2000000000000D+00  0.0000000000000D+00  0.0000000000000D+00
   222  2.2100000000000D+00  0.0000000000000D+00  0.0000000000000D+00
   223  2.2200000000000D+00  0.0000000000000D+00  0.0000000000000D+00
   224  2.2300000000000D+00  0.0000000000000D+00  0.0000000000000D+00
   225  2.2400000000000D+00  0.0000000000000D+00  0.0000000000000D+00
   226  2.2500000000000D+00  0.0000000000000D+00  0.0000000000000D+00
   227  2.2600000000000D+00  0.0000000000000D+00  0.0000000000000D+00
   228  2.2700000000000D+00  0.0000000000000D+00  0.0000000000000D+00
   229  2.2800000000000D+00  0.0000000000000D+00  0.0000000000000D+00
   230  2.2900000000000D+00  0.0000000000000D+00  0.0000000000000D+00
   231  2.3000000000000D+00  0.0000000000000D+00  0.0000000000000D+00
   232  2.3100000000000D+00  0.0000000000000D+00  0.0000000000000D+00
   233  2.3200000000000D+00  0.0000000000000D+00  0.0000000000000D+00
   234  2.3300000000000D+00  0.0000000000000D+00  0.0000000000000D+00
   235  2.3400000000000D+00  0.0000000000000D+00  0.0000000000000D+00
   236  2.3500000000000D+00  0.0000000000000D+00  0.0000000000000D+00
   237  2.3600000000000D+00  0.0000000000000D+00  0.0000000000000D+00
   238  2.3700000000000D+00  0.0000000000000D+00  0.0000000000000D+00
   239  2.3800000000000D+00  0.0000000000000D+00  0.0000000000000D+00
   240  2.3900000000000D+00  0.0000000000000D+00  0.0000000000000D+00
   241  2.4000000000000D+00  0.0000000000000D+00  0.0000000000000D+00
   242  2.4100000000000D+00  0.0000000000000D+00  0.0000000000000D+00
   243  2.4200000000000D+00  0.0000000000000D+00  0.0000000000000D+00
   244  2.4300000000000D+00  0.0000000000000D+00  0.0000000000000D+00
   245  2.4400000000000D+00  0.0000000000000D+00  0.0000000000000D+00
   246  2.4500000000000D+00  0.0000000000000D+00  0.0000000000000D+00
   247  2.4600000000000D+00  0.0000000000000D+00  0.0000000000000D+00
   248  2.4700000000000D+00  0.0000000000000D+00  0.0000000000000D+00
   249  2.4800000000000D+00  0.0000000000000D+00  0.0000000000000D+00
   250  2.4900000000000D+00  0.0000000000000D+00  0.0000000000000D+00
   251  2.5000000000000D+00  0.0000000000000D+00  0.0000000000000D+00
   252  2.5100000000000D+00  0.0000000000000D+00  0.0000000000000D+00
   253  2.5200000000000D+00  0.0000000000000D+00  0.0000000000000D+00
   254  2.5300000000000D+00  0.0000000000000D+00  0.0000000000000D+00
   255  2.5400000000000D+00  0.0000000000000D+00  0.0000000000000D+00
   256  2.5500000000000D+00  0.0000000000000D+00  0.0000000000000D+00
   257  2.5600000000000D+00  0.0000000000000D+00  0.0000000000000D+00
   258  2.5700000000000D+00  0.0000000000000D+00  0.0000000000000D+00
   259  2.5800000000000D+00  0.0000000000000D+00  0.0000000000000D+00
   260  2.5900000000000D+00  0.0000000000000D+00  0.0000000000000D+00
   261  2.6000000000000D+00  0.0000000000000D+00  0.0000000000000D+00
   262  2.6100000000000D+00  0.0000000000000D+00  0.0000000000000D+00
   263  2.6200000000000D+00  0.0000000000000D+00  0.0000000000000D+00
   264  2.6300000000000D+00  0.0000000000000D+00  0.0000000000000D+00
   265  2.6400000000000D+00  0.0000000000000D+00  0.0000000000000D+00
   266  2.6500000000000D+00  0.0000000000000D+00  0.0000000000000D+00
   267  2.6600000000000D+00  0.0000000000000D+00  0.0000000000000D+00
   268  2.6700000000000D+00  0.0000000000000D+00  0.0000000000000D+00
   269  2.6800000000000D+00  0.0000000000000D+00  0.0000000000000D+00
   270  2.6900000000000D+00  0.0000000000000D+00  0.0000000000000D+00
   271  2.7000000000000D+00  0.0000000000000D+00  0.0000000000000D+00
   272  2.7100000000000D+00  0.0000000000000D+00  0.0000000000000D+00
   273  2.7200000000000D+00  0.0000000000000D+00  0.0000000000000D+00
   274  2.7300000000000D+00  0.0000000000000D+00  0.0000000000000D+00
   275  2.7400000000000D+00  0.0000000000000D+00  0.0000000000000D+00
   276  2.7500000000000D+00  0.0000000000000D+00  0.0000000000000D+00
   277  2.7600000000000D+00  0.0000000000000D+00  0.0000000000000D+00
   278  2.7700000000000D+00  0.0000000000000D+00  0.0000000000000D+00
   279  2.7800000000000D+00  0.0000000000000D+00  0.0000000000000D+00
   280  2.7900000000000D+00  0.0000000000000D+00  0.0000000000000D+00
   281  2.8000000000000D+00  0.0000000000000D+00  0.0000000000000D+00
   282  2.8100000000000D+00  0.0000000000000D+00  0.0000000000000D+00
   283  2.8200000000000D+00  0.0000000000000D+00  0.0000000000000D+00
   284  2.8300000000000D+00  0.0000000000000D+00  0.0000000000000D+00
   285  2.8400000000000D+00  0.0000000000000D+00  0.0000000000000D+00
   286  2.8500000000000D+00  0.0000000000000D+00  0.0000000000000D+00
   287  2.8600000000000D+00  0.0000000000000D+00  0.0000000000000D+00
   288  2.8700000000000D+00  0.0000000000000D+00  0.0000000000000D+00
   289  2.8800000000000D+00  0.0000000000000D+00  0.0000000000000D+00
   290  2.8900000000000D+00  0.0000000000000D+00  0.0000000000000D+00
   291  2.9000000000000D+00  0.0000000000000D+00  0.0000000000000D+00
   292  2.9100000000000D+00  0.0000000000000D+00  0.0000000000000D+00
   293  2.9200000000000D+00  0.0000000000000D+00  0.0000000000000D+00
   294  2.9300000000000D+00  0.0000000000000D+00  0.0000000000000D+00
   295  2.9400000000000D+00  0.0000000000000D+00  0.0000000000000D+00
   296  2.9500000000000D+00  0.0000000000000D+00  0.0000000000000D+00
   297  2.9600000000000D+00  0.0000000000000D+00  0.0000000000000D+00
   298  2.9700000000000D+00  0.0000000000000D+00  0.0000000000000D+00
   299  2.9800000000000D+00  0.0000000000000D+00  0.0000000000000D+00
   300  2.9900000000000D+00  0.0000000000000D+00  0.0000000000000D+00
   301  3.0000000000000D+00  0.0000000000000D+00  0.0000000000000D+00
   302  3.0100000000000D+00  0.0000000000000D+00  0.0000000000000D+00
   303  3.0200000000000D+00  0.0000000000000D+00  0.0000000000000D+00
   304  3.0300000000000D+00  0.0000000000000D+00  0.0000000000000D+00
   305  3.0400000000000D+00  0.0000000000000D+00  0.0000000000000D+00
   306  3.0500000000000D+00  0.0000000000000D+00  0.0000000000000D+00
   307  3.0600000000000D+00  0.0000000000000D+00  0.0000000000000D+00
   308  3.0700000000000D+00  0.0000000000000D+00  0.0000000000000D+00
   309  3.0800000000000D+00  0.0000000000000D+00  0.0000000000000D+00
   310  3.0900000000000D+00  0.0000000000000D+00  0.0000000000000D+00
   311  3.1000000000000D+00  0.0000000000000D+00  0.0000000000000D+00
   312  3.1100000000000D+00  0.0000000000000D+00  0.0000000000000D+00
   313  3.1200000000000D+00  0.0000000000000D+00  0.0000000000000D+00
   314  3.1300000000000D+00  0.0000000000000D+00  0.0000000000000D+00
   315  3.1400000000000D+00  0.0000000000000D+00  0.0000000000000D+00
   316  3.1500000000000D+00  0.0000000000000D+00  0.0000000000000D+00
   317  3.1600000000000D+00  0.0000000000000D+00  0.0000000000000D+00
   318  3.1700000000000D+00  0.0000000000000D+00  0.0000000000000D+00
   319  3.1800000000000D+00  0.0000000000000D+00  0.0000000000000D+00
   320  3.1900000000000D+00  0.0000000000000D+00  0.0000000000000D+00
   321  3.2000000000000D+00  0.0000000000000D+00  0.0000000000000D+00
   322  3.2100000000000D+00  0.0000000000000D+00  0.0000000000000D+00
   323  3.2200000000000D+00  0.0000000000000D+00  0.0000000000000D+00
   324  3.2300000000000D+00  0.0000000000000D+00  0.0000000000000D+00
   325  3.2400000000000D+00  0.0000000000000D+00  0.0000000000000D+00
   326  3.2500000000000D+00  0.0000000000000D+00  0.0000000000000D+00
   327  3.2600000000000D+00  0.0000000000000D+00  0.0000000000000D+00
   328  3.2700000000000D+00  0.0000000000000D+00  0.0000000000000D+00
   329  3.2800000000000D+00  0.0000000000000D+00  0.0000000000000D+00
   330  3.2900000000000D+00  0.0000000000000D+00  0.0000000000000D+00
   331  3.3000000000000D+00  0.0000000000000D+00  0.0000000000000D+00
   332  3.3100000000000D+00  0.0000000000000D+00  0.0000000000000D+00
   333  3.3200000000000D+00  0.0000000000000D+00  0.0000000000000D+00
   334  3.3300000000000D+00  0.0000000000000D+00  0.0000000000000D+00
   335  3.3400000000000D+00  0.0000000000000D+00  0.0000000000000D+00
   336  3.3500000000000D+00  0.0000000000000D+00  0.0000000000000D+00
   337  3.3600000000000D+00  0.0000000000000D+00  0.0000000000000D+00
   338  3.3700000000000D+00  0.0000000000000D+00  0.0000000000000D+00
   339  3.3800000000000D+00  0.0000000000000D+00  0.0000000000000D+00
   340  3.3900000000000D+00  0.0000000000000D+00  0.0000000000000D+00
   341  3.4000000000000D+00  0.0000000000000D+00  0.0000000000000D+00
   342  3.4100000000000D+00  0.0000000000000D+00  0.0000000000000D+00
   343  3.4200000000000D+00  0.0000000000000D+00  0.0000000000000D+00
   344  3.4300000000000D+00  0.0000000000000D+00  0.0000000000000D+00
   345  3.4400000000000D+00  0.0000000000000D+00  0.0000000000000D+00
   346  3.4500000000000D+00  0.0000000000000D+00  0.0000000000000D+00
   347  3.4600000000000D+00  0.0000000000000D+00  0.0000000000000D+00
   348  3.4700000000000D+00  0.0000000000000D+00  0.0000000000000D+00
   349  3.4800000000000D+00  0.0000000000000D+00  0.0000000000000D+00
   350  3.4900000000000D+00  0.0000000000000D+00  0.0000000000000D+00
   351  3.5000000000000D+00  0.0000000000000D+00  0.0000000000000D+00
   352  3.5100000000000D+00  0.0000000000000D+00  0.0000000000000D+00
   353  3.5200000000000D+00  0.0000000000000D+00  0.0000000000000D+00
   354  3.5300000000000D+00  0.0000000000000D+00  0.0000000000000D+00
   355  3.5400000000000D+00  0.0000000000000D+00  0.0000000000000D+00
   356  3.5500000000000D+00  0.0000000000000D+00  0.0000000000000D+00
   357  3.5600000000000D+00  0.0000000000000D+00  0.0000000000000D+00
   358  3.5700000000000D+00  0.0000000000000D+00  0.0000000000000D+00
   359  3.5800000000000D+00  0.0000000000000D+00  0.0000000000000D+00
   360  3.5900000000000D+00  0.0000000000000D+00  0.0000000000000D+00
   361  3.6000000000000D+00  0.0000000000000D+00  0.0000000000000D+00
   362  3.6100000000000D+00  0.0000000000000D+00  0.0000000000000D+00
   363  3.6200000000000D+00  0.0000000000000D+00  0.0000000000000D+00
   364  3.6300000000000D+00  0.0000000000000D+00  0.0000000000000D+00
   365  3.6400000000000D+00  0.0000000000000D+00  0.0000000000000D+00
   366  3.6500000000000D+00  0.0000000000000D+00  0.0000000000000D+00
   367  3.6600000000000D+00  0.0000000000000D+00  0.0000000000000D+00
   368  3.6700000000000D+00  0.0000000000000D+00  0.0000000000000D+00
   369  3.6800000000000D+00  0.0000000000000D+00  0.0000000000000D+00
   370  3.6900000000000D+00  0.0000000000000D+00  0.0000000000000D+00
   371  3.7000000000000D+00  0.0000000000000D+00  0.0000000000000D+00
   372  3.7100000000000D+00  0.0000000000000D+00  0.0000000000000D+00
   373  3.7200000000000D+00  0.0000000000000D+00  0.0000000000000D+00
   374  3.7300000000000D+00  0.0000000000000D+00  0.0000000000000D+00
   375  3.7400000000000D+00  0.0000000000000D+00  0.0000000000000D+00
   376  3.7500000000000D+00  0.0000000000000D+00  0.0000000000000D+00
   377  3.7600000000000D+00  0.0000000000000D+00  0.0000000000000D+00
   378  3.7700000000000D+00  0.0000000000000D+00  0.0000000000000D+00
   379  3.7800000000000D+00  0.0000000000000D+00  0.0000000000000D+00
   380  3.7900000000000D+00  0.0000000000000D+00  0.0000000000000D+00
   381  3.8000000000000D+00  0.0000000000000D+00  0.0000000000000D+00
   382  3.8100000000000D+00  0.0000000000000D+00  0.0000000000000D+00
   383  3.8200000000000D+00  0.0000000000000D+00  0.0000000000000D+00
   384  3.8300000000000D+00  0.0000000000000D+00  0.0000000000000D+00
   385  3.8400000000000D+00  0.0000000000000D+00  0.0000000000000D+00
   386  3.8500000000000D+00  0.0000000000000D+00  0.0000000000000D+00
   387  3.8600000000000D+00  0.0000000000000D+00  0.0000000000000D+00
   388  3.8700000000000D+00  0.0000000000000D+00  0.0000000000000D+00
   389  3.8800000000000D+00  0.0000000000000D+00  0.0000000000000D+00
   390  3.8900000000000D+00  0.0000000000000D+00  0.0000000000000D+00
   391  3.9000000000000D+00  0.0000000000000D+00  0.0000000000000D+00
   392  3.9100000000000D+00  0.0000000000000D+00  0.0000000000000D+00
   393  3.9200000000000D+00  0.0000000000000D+00  0.0000000000000D+00
   394  3.9300000000000D+00  0.0000000000000D+00  0.0000000000000D+00
   395  3.9400000000000D+00  0.0000000000000D+00  0.0000000000000D+00
   396  3.9500000000000D+00  0.0000000000000D+00  0.0000000000000D+00
   397  3.9600000000000D+00  0.0000000000000D+00  0.0000000000000D+00
   398  3.9700000000000D+00  0.0000000000000D+00  0.0000000000000D+00
   399  3.9800000000000D+00  0.0000000000000D+00  0.0000000000000D+00
   400  3.9900000000000D+00  0.0000000000000D+00  0.0000000000000D+00
   401  4.0000000000000D+00  0.0000000000000D+00  0.0000000000000D+00
   402  4.0100000000000D+00  0.0000000000000D+00  0.0000000000000D+00
   403  4.0200000000000D+00  0.0000000000000D+00  0.0000000000000D+00
   404  4.0300000000000D+00  0.0000000000000D+00  0.0000000000000D+00
   405  4.0400000000000D+00  0.0000000000000D+00  0.0000000000000D+00
   406  4.0500000000000D+00  0.0000000000000D+00  0.0000000000000D+00
   407  4.0600000000000D+00  0.0000000000000D+00  0.0000000000000D+00
   408  4.0700000000000D+00  0.0000000000000D+00  0.0000000000000D+00
   409  4.0800000000000D+00  0.0000000000000D+00  0.0000000000000D+00
   410  4.0900000000000D+00  0.0000000000000D+00  0.0000000000000D+00
   411  4.1000000000000D+00  0.0000000000000D+00  0.0000000000000D+00
   412  4.1100000000000D+00  0.0000000000000D+00  0.0000000000000D+00
   413  4.1200000000000D+00  0.0000000000000D+00  0.0000000000000D+00
   414  4.1300000000000D+00  0.0000000000000D+00  0.0000000000000D+00
   415  4.1400000000000D+00  0.0000000000000D+00  0.0000000000000D+00
   416  4.1500000000000D+00  0.0000000000000D+00  0.0000000000000D+00
   417  4.1600000000000D+00  0.0000000000000D+00  0.0000000000000D+00
   418  4.1700000000000D+00  0.0000000000000D+00  0.0000000000000D+00
   419  4.1800000000000D+00  0.0000000000000D+00  0.0000000000000D+00
   420  4.1900000000000D+00  0.0000000000000D+00  0.0000000000000D+00
   421  4.2000000000000D+00  0.0000000000000D+00  0.0000000000000D+00
   422  4.2100000000000D+00  0.0000000000000D+00  0.0000000000000D+00