C     ONCVPSP-3.3.0  r_core=   1.20440   1.26326
      6.0000      4.0000      220408    zatom,zion,pspd
     8       2   1     4   600     0    pspcod,pspxc,lmax,lloc,mmax,r2well
  5.99000000  0.00000000  0.00000000    rchrg fchrg qchrg
     2     2     0     0     0    nproj
     1     1           extension_switch
   0                         6.4311969435942D+00  4.0049488308089D-01
     1  0.0000000000000D+00 -1.1821496004316D-09  6.6912487078907D-09
     2  1.0000000000000D-02  7.4376114041254D-02 -1.6038026863064D-02
     3  2.0000000000000D-02  1.4852442386553D-01 -3.1656895537729D-02
     4  3.0000000000000D-02  2.2221889419848D-01 -4.6444882543559D-02
     5  4.0000000000000D-02  2.9523700551585D-01 -6.0005015982452D-02
     6  5.0000000000000D-02  3.6736145688668D-01 -7.1962158478907D-02
     7  6.0000000000000D-02  4.3838180363070D-01 -8.1969743527554D-02
     8  7.0000000000000D-02  5.0809600946990D-01 -8.9716057691806D-02
     9  8.0000000000000D-02  5.7631189403606D-01 -9.4929967788732D-02
    10  9.0000000000000D-02  6.4284845804303D-01 -9.7386000381785D-02
    11  1.0000000000000D-01  7.0753707012430D-01 -9.6908690469246D-02
    12  1.1000000000000D-01  7.7022250124901D-01 -9.3376127068201D-02
    13  1.2000000000000D-01  8.3076379473795D-01 -8.6722635298970D-02
    14  1.3000000000000D-01  8.8903496217456D-01 -7.6940547405285D-02
    15  1.4000000000000D-01  9.4492549791431D-01 -6.4081028720396D-02
    16  1.5000000000000D-01  9.9834070740501D-01 -4.8253938715866D-02
    17  1.6000000000000D-01  1.0492018471059D+00 -2.9626721748583D-02
    18  1.7000000000000D-01  1.0974460763994D+00 -8.4223367456867D-03
    19  1.8000000000000D-01  1.1430262244890D+00  1.5083750370859D-02
    20  1.9000000000000D-01  1.1859103778347D+00  4.0567473427993D-02
    21  2.0000000000000D-01  1.2260812961576D+00  6.7660920007216D-02
    22  2.1000000000000D-01  1.2635356674123D+00  9.5957867667949D-02
    23  2.2000000000000D-01  1.2982832143460D+00  1.2502002507307D-01
    24  2.3000000000000D-01  1.3303456673087D+00  1.5438388947686D-01
    25  2.4000000000000D-01  1.3597556198149D+00  1.8356812202283D-01
    26  2.5000000000000D-01  1.3865552849629D+00  2.1208133364926D-01
    27  2.6000000000000D-01  1.4107951721655D+00  2.3943016724258D-01
    28  2.7000000000000D-01  1.4325327047206D+00  2.6512755612637D-01
    29  2.8000000000000D-01  1.4518307995327D+00  2.8870103511465D-01
    30  2.9000000000000D-01  1.4687564307734D+00  3.0970097825908D-01
    31  3.0000000000000D-01  1.4833791994396D+00  3.2770863712194D-01
    32  3.1000000000000D-01  1.4957699306203D+00  3.4234385492863D-01
    33  3.2000000000000D-01  1.5059993198231D+00  3.5327233528567D-01
    34  3.3000000000000D-01  1.5141366489440D+00  3.6021234925812D-01
    35  3.4000000000000D-01  1.5202485913976D+00  3.6294077143011D-01
    36  3.5000000000000D-01  1.5243981245727D+00  3.6129834403344D-01
    37  3.6000000000000D-01  1.5266435661595D+00  3.5519407822341D-01
    38  3.7000000000000D-01  1.5270377490312D+00  3.4460871297409D-01
    39  3.8000000000000D-01  1.5256273472792D+00  3.2959716471183D-01
    40  3.9000000000000D-01  1.5224523637221D+00  3.1028991453709D-01
    41  4.0000000000000D-01  1.5175457867757D+00  2.8689329451737D-01
    42  4.1000000000000D-01  1.5109334220044D+00  2.5968864987085D-01
    43  4.2000000000000D-01  1.5026339010198D+00  2.2903036969274D-01
    44  4.3000000000000D-01  1.4926588676841D+00  1.9534279498520D-01
    45  4.4000000000000D-01  1.4810133388485D+00  1.5911602891778D-01
    46  4.5000000000000D-01  1.4676962341526D+00  1.2090069023704D-01
    47  4.6000000000000D-01  1.4527010667720D+00  8.1301666344487D-02
    48  4.7000000000000D-01  1.4360167844528D+00  4.0970937541031D-02
    49  4.8000000000000D-01  1.4176287477668D+00  5.9955808632056D-04
    50  4.9000000000000D-01  1.3975198302834D+00 -3.9091107166289D-02
    51  5.0000000000000D-01  1.3756716233199D+00 -7.7358779916764D-02
    52  5.1000000000000D-01  1.3520657261350D+00 -1.1345017822764D-01
    53  5.2000000000000D-01  1.3266851008905D+00 -1.4661130896495D-01
    54  5.3000000000000D-01  1.2995154704585D+00 -1.7609800563455D-01
    55  5.4000000000000D-01  1.2705467362022D+00 -2.0118656899466D-01
    56  5.5000000000000D-01  1.2397743922398D+00 -2.2118436435187D-01
    57  5.6000000000000D-01  1.2072009124077D+00 -2.3544022796201D-01
    58  5.7000000000000D-01  1.1728370861925D+00 -2.4335453548691D-01
    59  5.8000000000000D-01  1.1367032802991D+00 -2.4438878802833D-01
    60  5.9000000000000D-01  1.0988306032522D+00 -2.3807457584215D-01
    61  6.0000000000000D-01  1.0592619515064D+00 -2.2402178640403D-01
    62  6.1000000000000D-01  1.0180529169276D+00 -2.0192593196831D-01
    63  6.2000000000000D-01  9.7527253720756D-01 -1.7157448202435D-01
    64  6.3000000000000D-01  9.3100387276395D-01 -1.3285209806390D-01
    65  6.4000000000000D-01  8.8534439590994D-01 -8.5744681507882D-02
    66  6.5000000000000D-01  8.3840618056588D-01 -3.0342160581434D-02
    67  6.6000000000000D-01  7.9031588345773D-01  3.3160042029999D-02
    68  6.7000000000000D-01  7.4121451057601D-01  1.0446090194905D-01
    69  6.8000000000000D-01  6.9125696565072D-01  1.8315506962974D-01
    70  6.9000000000000D-01  6.4061138043962D-01  2.6873553573501D-01
    71  7.0000000000000D-01  5.8945822972670D-01  3.6059767188664D-01
    72  7.1000000000000D-01  5.3798923702269D-01  4.5804461474747D-01
    73  7.2000000000000D-01  4.8640608002711D-01  5.6029394298432D-01
    74  7.3000000000000D-01  4.3491890787818D-01  6.6648557884101D-01
    75  7.4000000000000D-01  3.8374468507009D-01  7.7569082888410D-01
    76  7.5000000000000D-01  3.3310537960269D-01  8.8692246230012D-01
    77  7.6000000000000D-01  2.8322601540074D-01  9.9914571018429D-01
    78  7.7000000000000D-01  2.3433261128988D-01  1.1112900556167D+00
    79  7.8000000000000D-01  1.8665003077146D-01  1.2222616724084D+00
    80  7.9000000000000D-01  1.4039976850283D-01  1.3309563601846D+00
    81  8.0000000000000D-01  9.5797700720227D-02  1.4362728152111D+00
    82  8.1000000000000D-01  5.3051827820806D-02  1.5371260701712D+00
    83  8.2000000000000D-01  1.2360037932449D-02  1.6324609320489D+00
    84  8.3000000000000D-01 -2.6092079468890D-02  1.7212652454639D+00
    85  8.4000000000000D-01 -6.2133340989633D-02  1.8025828092539D+00
    86  8.5000000000000D-01 -9.5608969436437D-02  1.8755257768421D+00
    87  8.6000000000000D-01 -1.2638245919008D-01  1.9392863759247D+00
    88  8.7000000000000D-01 -1.5433728070912D-01  1.9931477902272D+00
    89  8.8000000000000D-01 -1.7937839970412D-01  2.0364940554204D+00
    90  8.9000000000000D-01 -2.0143358853294D-01  2.0688188326493D+00
    91  9.0000000000000D-01 -2.2045450969614D-01  2.0897329363714D+00
    92  9.1000000000000D-01 -2.3641755392967D-01  2.0989705081604D+00
    93  9.2000000000000D-01 -2.4932441826862D-01  2.0963937446147D+00
    94  9.3000000000000D-01 -2.5920241255189D-01  2.0819961053105D+00
    95  9.4000000000000D-01 -2.6610448611666D-01  2.0559039456219D+00
    96  9.5000000000000D-01 -2.7010896984764D-01  2.0183765389461D+00
    97  9.6000000000000D-01 -2.7131903225677D-01  1.9698044731698D+00
    98  9.7000000000000D-01 -2.6986185182508D-01  1.9107064267942D+00
    99  9.8000000000000D-01 -2.6588751143613D-01  1.8417243510017D+00
   100  9.9000000000000D-01 -2.5956762413290D-01  1.7636171036982D+00
   101  1.0000000000000D+00 -2.5109370300346D-01  1.6772526023412D+00
   102  1.0100000000000D+00 -2.4067529116515D-01  1.5835985807917D+00
   103  1.0200000000000D+00 -2.2853787095734D-01  1.4837120537429D+00
   104  1.0300000000000D+00 -2.1492057430811D-01  1.3787276089607D+00
   105  1.0400000000000D+00 -2.0007371888273D-01  1.2698446630499D+00
   106  1.0500000000000D+00 -1.8425619682712D-01  1.1583138294099D+00
   107  1.0600000000000D+00 -1.6773274498917D-01  1.0454225592410D+00
   108  1.0700000000000D+00 -1.5077112707268D-01  9.3248022578917D-01
   109  1.0800000000000D+00 -1.3363925938249D-01  8.2080282921399D-01
   110  1.0900000000000D+00 -1.1660231264568D-01  7.1169750451544D-01
   111  1.1000000000000D+00 -9.9919822783979D-02  6.0644701744754D-01
   112  1.1100000000000D+00 -8.3842843561955D-02  5.0629443392402D-01
   113  1.1200000000000D+00 -6.8611173533896D-02  4.1242814579025D-01
   114  1.1300000000000D+00 -5.4450688837838D-02  3.2596743106038D-01
   115  1.1400000000000D+00 -4.1570812108514D-02  2.4794871961624D-01
   116  1.1500000000000D+00 -3.0162146369928D-02  1.7931272747196D-01
   117  1.1600000000000D+00 -2.0394300378091D-02  1.2089260921933D-01
   118  1.1700000000000D+00 -1.2418754914768D-02  7.3431615606395D-02
   119  1.1800000000000D+00 -6.3215191329423D-03  3.7305363830751D-02
   120  1.1900000000000D+00 -2.2762878332874D-03  1.3423606119230D-02
   121  1.2000000000000D+00 -3.9422890980155D-04  2.3478737473894D-03
   122  1.2100000000000D+00  6.0617680762057D-05 -3.3592447559626D-04
   123  1.2200000000000D+00 -7.6786419095705D-06  4.3946845161939D-05
   124  1.2300000000000D+00 -1.6043080379391D-05  9.2319599554705D-05
   125  1.2400000000000D+00  4.2506896810536D-06 -2.4302699961793D-05
   126  1.2500000000000D+00  8.9145735274308D-08 -5.5863454404494D-07
   127  1.2600000000000D+00  1.3156561515351D-07 -8.2446005080464D-07
   128  1.2700000000000D+00  0.0000000000000D+00  0.0000000000000D+00
   129  1.2800000000000D+00  0.0000000000000D+00  0.0000000000000D+00
   130  1.2900000000000D+00  0.0000000000000D+00  0.0000000000000D+00
   131  1.3000000000000D+00  0.0000000000000D+00  0.0000000000000D+00
   132  1.3100000000000D+00  0.0000000000000D+00  0.0000000000000D+00
   133  1.3200000000000D+00  0.0000000000000D+00  0.0000000000000D+00
   134  1.3300000000000D+00  0.0000000000000D+00  0.0000000000000D+00
   135  1.3400000000000D+00  0.0000000000000D+00  0.0000000000000D+00
   136  1.3500000000000D+00  0.0000000000000D+00  0.0000000000000D+00
   137  1.3600000000000D+00  0.0000000000000D+00  0.0000000000000D+00
   138  1.3700000000000D+00  0.0000000000000D+00  0.0000000000000D+00
   139  1.3800000000000D+00  0.0000000000000D+00  0.0000000000000D+00
   140  1.3900000000000D+00  0.0000000000000D+00  0.0000000000000D+00
   141  1.4000000000000D+00  0.0000000000000D+00  0.0000000000000D+00
   142  1.4100000000000D+00  0.0000000000000D+00  0.0000000000000D+00
   143  1.4200000000000D+00  0.0000000000000D+00  0.0000000000000D+00
   144  1.4300000000000D+00  0.0000000000000D+00  0.0000000000000D+00
   145  1.4400000000000D+00  0.0000000000000D+00  0.0000000000000D+00
   146  1.4500000000000D+00  0.0000000000000D+00  0.0000000000000D+00
   147  1.4600000000000D+00  0.0000000000000D+00  0.0000000000000D+00
   148  1.4700000000000D+00  0.0000000000000D+00  0.0000000000000D+00
   149  1.4800000000000D+00  0.0000000000000D+00  0.0000000000000D+00
   150  1.4900000000000D+00  0.0000000000000D+00  0.0000000000000D+00
   151  1.5000000000000D+00  0.0000000000000D+00  0.0000000000000D+00
   152  1.5100000000000D+00  0.0000000000000D+00  0.0000000000000D+00
   153  1.5200000000000D+00  0.0000000000000D+00  0.0000000000000D+00
   154  1.5300000000000D+00  0.0000000000000D+00  0.0000000000000D+00
   155  1.5400000000000D+00  0.0000000000000D+00  0.0000000000000D+00
   156  1.5500000000000D+00  0.0000000000000D+00  0.0000000000000D+00
   157  1.5600000000000D+00  0.0000000000000D+00  0.0000000000000D+00
   158  1.5700000000000D+00  0.0000000000000D+00  0.0000000000000D+00
   159  1.5800000000000D+00  0.0000000000000D+00  0.0000000000000D+00
   160  1.5900000000000D+00  0.0000000000000D+00  0.0000000000000D+00
   161  1.6000000000000D+00  0.0000000000000D+00  0.0000000000000D+00
   162  1.6100000000000D+00  0.0000000000000D+00  0.0000000000000D+00
   163  1.6200000000000D+00  0.0000000000000D+00  0.0000000000000D+00
   164  1.6300000000000D+00  0.0000000000000D+00  0.0000000000000D+00
   165  1.6400000000000D+00  0.0000000000000D+00  0.0000000000000D+00
   166  1.6500000000000D+00  0.0000000000000D+00  0.0000000000000D+00
   167  1.6600000000000D+00  0.0000000000000D+00  0.0000000000000D+00
   168  1.6700000000000D+00  0.0000000000000D+00  0.0000000000000D+00
   169  1.6800000000000D+00  0.0000000000000D+00  0.0000000000000D+00
   170  1.6900000000000D+00  0.0000000000000D+00  0.0000000000000D+00
   171  1.7000000000000D+00  0.0000000000000D+00  0.0000000000000D+00
   172  1.7100000000000D+00  0.0000000000000D+00  0.0000000000000D+00
   173  1.7200000000000D+00  0.0000000000000D+00  0.0000000000000D+00
   174  1.7300000000000D+00  0.0000000000000D+00  0.0000000000000D+00
   175  1.7400000000000D+00  0.0000000000000D+00  0.0000000000000D+00
   176  1.7500000000000D+00  0.0000000000000D+00  0.0000000000000D+00
   177  1.7600000000000D+00  0.0000000000000D+00  0.0000000000000D+00
   178  1.7700000000000D+00  0.0000000000000D+00  0.0000000000000D+00
   179  1.7800000000000D+00  0.0000000000000D+00  0.0000000000000D+00
   180  1.7900000000000D+00  0.0000000000000D+00  0.0000000000000D+00
   181  1.8000000000000D+00  0.0000000000000D+00  0.0000000000000D+00
   182  1.8100000000000D+00  0.0000000000000D+00  0.0000000000000D+00
   183  1.8200000000000D+00  0.0000000000000D+00  0.0000000000000D+00
   184  1.8300000000000D+00  0.0000000000000D+00  0.0000000000000D+00
   185  1.8400000000000D+00  0.0000000000000D+00  0.0000000000000D+00
   186  1.8500000000000D+00  0.0000000000000D+00  0.0000000000000D+00
   187  1.8600000000000D+00  0.0000000000000D+00  0.0000000000000D+00
   188  1.8700000000000D+00  0.0000000000000D+00  0.0000000000000D+00
   189  1.8800000000000D+00  0.0000000000000D+00  0.0000000000000D+00
   190  1.8900000000000D+00  0.0000000000000D+00  0.0000000000000D+00
   191  1.9000000000000D+00  0.0000000000000D+00  0.0000000000000D+00
   192  1.9100000000000D+00  0.0000000000000D+00  0.0000000000000D+00
   193  1.9200000000000D+00  0.0000000000000D+00  0.0000000000000D+00
   194  1.9300000000000D+00  0.0000000000000D+00  0.0000000000000D+00
   195  1.9400000000000D+00  0.0000000000000D+00  0.0000000000000D+00
   196  1.9500000000000D+00  0.0000000000000D+00  0.0000000000000D+00
   197  1.9600000000000D+00  0.0000000000000D+00  0.0000000000000D+00
   198  1.9700000000000D+00  0.0000000000000D+00  0.0000000000000D+00
   199  1.9800000000000D+00  0.0000000000000D+00  0.0000000000000D+00
   200  1.9900000000000D+00  0.0000000000000D+00  0.0000000000000D+00
   201  2.0000000000000D+00  0.0000000000000D+00  0.0000000000000D+00
   202  2.0100000000000D+00  0.0000000000000D+00  0.0000000000000D+00
   203  2.0200000000000D+00  0.0000000000000D+00  0.0000000000000D+00
   204  2.0300000000000D+00  0.0000000000000D+00  0.0000000000000D+00
   205  2.0400000000000D+00  0.0000000000000D+00  0.0000000000000D+00
   206  2.0500000000000D+00  0.0000000000000D+00  0.0000000000000D+00
   207  2.0600000000000D+00  0.0000000000000D+00  0.0000000000000D+00
   208  2.0700000000000D+00  0.0000000000000D+00  0.0000000000000D+00
   209  2.0800000000000D+00  0.0000000000000D+00  0.0000000000000D+00
   210  2.0900000000000D+00  0.0000000000000D+00  0.0000000000000D+00
   211  2.1000000000000D+00  0.0000000000000D+00  0.0000000000000D+00
   212  2.1100000000000D+00  0.0000000000000D+00  0.0000000000000D+00
   213  2.1200000000000D+00  0.0000000000000D+00  0.0000000000000D+00
   214  2.1300000000000D+00  0.0000000000000D+00  0.0000000000000D+00
   215  2.1400000000000D+00  0.0000000000000D+00  0.0000000000000D+00
   216  2.1500000000000D+00  0.0000000000000D+00  0.0000000000000D+00
   217  2.1600000000000D+00  0.0000000000000D+00  0.0000000000000D+00
   218  2.1700000000000D+00  0.0000000000000D+00  0.0000000000000D+00
   219  2.1800000000000D+00  0.0000000000000D+00  0.0000000000000D+00
   220  2.1900000000000D+00  0.0000000000000D+00  0.0000000000000D+00
   221  2.2000000000000D+00  0.0000000000000D+00  0.0000000000000D+00
   222  2.2100000000000D+00  0.0000000000000D+00  0.0000000000000D+00
   223  2.2200000000000D+00  0.0000000000000D+00  0.0000000000000D+00
   224  2.2300000000000D+00  0.0000000000000D+00  0.0000000000000D+00
   225  2.2400000000000D+00  0.0000000000000D+00  0.0000000000000D+00
   226  2.2500000000000D+00  0.0000000000000D+00  0.0000000000000D+00
   227  2.2600000000000D+00  0.0000000000000D+00  0.0000000000000D+00
   228  2.2700000000000D+00  0.0000000000000D+00  0.0000000000000D+00
   229  2.2800000000000D+00  0.0000000000000D+00  0.0000000000000D+00
   230  2.2900000000000D+00  0.0000000000000D+00  0.0000000000000D+00
   231  2.3000000000000D+00  0.0000000000000D+00  0.0000000000000D+00
   232  2.3100000000000D+00  0.0000000000000D+00  0.0000000000000D+00
   233  2.3200000000000D+00  0.0000000000000D+00  0.0000000000000D+00
   234  2.3300000000000D+00  0.0000000000000D+00  0.0000000000000D+00
   235  2.3400000000000D+00  0.0000000000000D+00  0.0000000000000D+00
   236  2.3500000000000D+00  0.0000000000000D+00  0.0000000000000D+00
   237  2.3600000000000D+00  0.0000000000000D+00  0.0000000000000D+00
   238  2.3700000000000D+00  0.0000000000000D+00  0.0000000000000D+00
   239  2.3800000000000D+00  0.0000000000000D+00  0.0000000000000D+00
   240  2.3900000000000D+00  0.0000000000000D+00  0.0000000000000D+00
   241  2.4000000000000D+00  0.0000000000000D+00  0.0000000000000D+00
   242  2.4100000000000D+00  0.0000000000000D+00  0.0000000000000D+00
   243  2.4200000000000D+00  0.0000000000000D+00  0.0000000000000D+00
   244  2.4300000000000D+00  0.0000000000000D+00  0.0000000000000D+00
   245  2.4400000000000D+00  0.0000000000000D+00  0.0000000000000D+00
   246  2.4500000000000D+00  0.0000000000000D+00  0.0000000000000D+00
   247  2.4600000000000D+00  0.0000000000000D+00  0.0000000000000D+00
   248  2.4700000000000D+00  0.0000000000000D+00  0.0000000000000D+00
   249  2.4800000000000D+00  0.0000000000000D+00  0.0000000000000D+00
   250  2.4900000000000D+00  0.0000000000000D+00  0.0000000000000D+00
   251  2.5000000000000D+00  0.0000000000000D+00  0.0000000000000D+00
   252  2.5100000000000D+00  0.0000000000000D+00  0.0000000000000D+00
   253  2.5200000000000D+00  0.0000000000000D+00  0.0000000000000D+00
   254  2.5300000000000D+00  0.0000000000000D+00  0.0000000000000D+00
   255  2.5400000000000D+00  0.0000000000000D+00  0.0000000000000D+00
   256  2.5500000000000D+00  0.0000000000000D+00  0.0000000000000D+00
   257  2.5600000000000D+00  0.0000000000000D+00  0.0000000000000D+00
   258  2.5700000000000D+00  0.0000000000000D+00  0.0000000000000D+00
   259  2.5800000000000D+00  0.0000000000000D+00  0.0000000000000D+00
   260  2.5900000000000D+00  0.0000000000000D+00  0.0000000000000D+00
   261  2.6000000000000D+00  0.0000000000000D+00  0.0000000000000D+00
   262  2.6100000000000D+00  0.0000000000000D+00  0.0000000000000D+00
   263  2.6200000000000D+00  0.0000000000000D+00  0.0000000000000D+00
   264  2.6300000000000D+00  0.0000000000000D+00  0.0000000000000D+00
   265  2.6400000000000D+00  0.0000000000000D+00  0.0000000000000D+00
   266  2.6500000000000D+00  0.0000000000000D+00  0.0000000000000D+00
   267  2.6600000000000D+00  0.0000000000000D+00  0.0000000000000D+00
   268  2.6700000000000D+00  0.0000000000000D+00  0.0000000000000D+00
   269  2.6800000000000D+00  0.0000000000000D+00  0.0000000000000D+00
   270  2.6900000000000D+00  0.0000000000000D+00  0.0000000000000D+00
   271  2.7000000000000D+00  0.0000000000000D+00  0.0000000000000D+00
   272  2.7100000000000D+00  0.0000000000000D+00  0.0000000000000D+00
   273  2.7200000000000D+00  0.0000000000000D+00  0.0000000000000D+00
   274  2.7300000000000D+00  0.0000000000000D+00  0.0000000000000D+00
   275  2.7400000000000D+00  0.0000000000000D+00  0.0000000000000D+00
   276  2.7500000000000D+00  0.0000000000000D+00  0.0000000000000D+00
   277  2.7600000000000D+00  0.0000000000000D+00  0.0000000000000D+00
   278  2.7700000000000D+00  0.0000000000000D+00  0.0000000000000D+00
   279  2.7800000000000D+00  0.0000000000000D+00  0.0000000000000D+00
   280  2.7900000000000D+00  0.0000000000000D+00  0.0000000000000D+00
   281  2.8000000000000D+00  0.0000000000000D+00  0.0000000000000D+00
   282  2.8100000000000D+00  0.0000000000000D+00  0.0000000000000D+00
   283  2.8200000000000D+00  0.0000000000000D+00  0.0000000000000D+00
   284  2.8300000000000D+00  0.0000000000000D+00  0.0000000000000D+00
   285  2.8400000000000D+00  0.0000000000000D+00  0.0000000000000D+00
   286  2.8500000000000D+00  0.0000000000000D+00  0.0000000000000D+00
   287  2.8600000000000D+00  0.0000000000000D+00  0.0000000000000D+00
   288  2.8700000000000D+00  0.0000000000000D+00  0.0000000000000D+00
   289  2.8800000000000D+00  0.0000000000000D+00  0.0000000000000D+00
   290  2.8900000000000D+00  0.0000000000000D+00  0.0000000000000D+00
   291  2.9000000000000D+00  0.0000000000000D+00  0.0000000000000D+00
   292  2.9100000000000D+00  0.0000000000000D+00  0.0000000000000D+00
   293  2.9200000000000D+00  0.0000000000000D+00  0.0000000000000D+00
   294  2.9300000000000D+00  0.0000000000000D+00  0.0000000000000D+00
   295  2.9400000000000D+00  0.0000000000000D+00  0.0000000000000D+00
   296  2.9500000000000D+00  0.0000000000000D+00  0.0000000000000D+00
   297  2.9600000000000D+00  0.0000000000000D+00  0.0000000000000D+00
   298  2.9700000000000D+00  0.0000000000000D+00  0.0000000000000D+00
   299  2.9800000000000D+00  0.0000000000000D+00  0.0000000000000D+00
   300  2.9900000000000D+00  0.0000000000000D+00  0.0000000000000D+00
   301  3.0000000000000D+00  0.0000000000000D+00  0.0000000000000D+00
   302  3.0100000000000D+00  0.0000000000000D+00  0.0000000000000D+00
   303  3.0200000000000D+00  0.0000000000000D+00  0.0000000000000D+00
   304  3.0300000000000D+00  0.0000000000000D+00  0.0000000000000D+00
   305  3.0400000000000D+00  0.0000000000000D+00  0.0000000000000D+00
   306  3.0500000000000D+00  0.0000000000000D+00  0.0000000000000D+00
   307  3.0600000000000D+00  0.0000000000000D+00  0.0000000000000D+00
   308  3.0700000000000D+00  0.0000000000000D+00  0.0000000000000D+00
   309  3.0800000000000D+00  0.0000000000000D+00  0.0000000000000D+00
   310  3.0900000000000D+00  0.0000000000000D+00  0.0000000000000D+00
   311  3.1000000000000D+00  0.0000000000000D+00  0.0000000000000D+00
   312  3.1100000000000D+00  0.0000000000000D+00  0.0000000000000D+00
   313  3.1200000000000D+00  0.0000000000000D+00  0.0000000000000D+00
   314  3.1300000000000D+00  0.0000000000000D+00  0.0000000000000D+00
   315  3.1400000000000D+00  0.0000000000000D+00  0.0000000000000D+00
   316  3.1500000000000D+00  0.0000000000000D+00  0.0000000000000D+00
   317  3.1600000000000D+00  0.0000000000000D+00  0.0000000000000D+00
   318  3.1700000000000D+00  0.0000000000000D+00  0.0000000000000D+00
   319  3.1800000000000D+00  0.0000000000000D+00  0.0000000000000D+00
   320  3.1900000000000D+00  0.0000000000000D+00  0.0000000000000D+00
   321  3.2000000000000D+00  0.0000000000000D+00  0.0000000000000D+00
   322  3.2100000000000D+00  0.0000000000000D+00  0.0000000000000D+00
   323  3.2200000000000D+00  0.0000000000000D+00  0.0000000000000D+00
   324  3.2300000000000D+00  0.0000000000000D+00  0.0000000000000D+00
   325  3.2400000000000D+00  0.0000000000000D+00  0.0000000000000D+00
   326  3.2500000000000D+00  0.0000000000000D+00  0.0000000000000D+00
   327  3.2600000000000D+00  0.0000000000000D+00  0.0000000000000D+00
   328  3.2700000000000D+00  0.0000000000000D+00  0.0000000000000D+00
   329  3.2800000000000D+00  0.0000000000000D+00  0.0000000000000D+00
   330  3.2900000000000D+00  0.0000000000000D+00  0.0000000000000D+00
   331  3.3000000000000D+00  0.0000000000000D+00  0.0000000000000D+00
   332  3.3100000000000D+00  0.0000000000000D+00  0.0000000000000D+00
   333  3.3200000000000D+00  0.0000000000000D+00  0.0000000000000D+00
   334  3.3300000000000D+00  0.0000000000000D+00  0.0000000000000D+00
   335  3.3400000000000D+00  0.0000000000000D+00  0.0000000000000D+00
   336  3.3500000000000D+00  0.0000000000000D+00  0.0000000000000D+00
   337  3.3600000000000D+00  0.0000000000000D+00  0.0000000000000D+00
   338  3.3700000000000D+00  0.0000000000000D+00  0.0000000000000D+00
   339  3.3800000000000D+00  0.0000000000000D+00  0.0000000000000D+00
   340  3.3900000000000D+00  0.0000000000000D+00  0.0000000000000D+00
   341  3.4000000000000D+00  0.0000000000000D+00  0.0000000000000D+00
   342  3.4100000000000D+00  0.0000000000000D+00  0.0000000000000D+00
   343  3.4200000000000D+00  0.0000000000000D+00  0.0000000000000D+00
   344  3.4300000000000D+00  0.0000000000000D+00  0.0000000000000D+00
   345  3.4400000000000D+00  0.0000000000000D+00  0.0000000000000D+00
   346  3.4500000000000D+00  0.0000000000000D+00  0.0000000000000D+00
   347  3.4600000000000D+00  0.0000000000000D+00  0.0000000000000D+00
   348  3.4700000000000D+00  0.0000000000000D+00  0.0000000000000D+00
   349  3.4800000000000D+00  0.0000000000000D+00  0.0000000000000D+00
   350  3.4900000000000D+00  0.0000000000000D+00  0.0000000000000D+00
   351  3.5000000000000D+00  0.0000000000000D+00  0.0000000000000D+00
   352  3.5100000000000D+00  0.0000000000000D+00  0.0000000000000D+00
   353  3.5200000000000D+00  0.0000000000000D+00  0.0000000000000D+00
   354  3.5300000000000D+00  0.0000000000000D+00  0.0000000000000D+00
   355  3.5400000000000D+00  0.0000000000000D+00  0.0000000000000D+00
   356  3.5500000000000D+00  0.0000000000000D+00  0.0000000000000D+00
   357  3.5600000000000D+00  0.0000000000000D+00  0.0000000000000D+00
   358  3.5700000000000D+00  0.0000000000000D+00  0.0000000000000D+00
   359  3.5800000000000D+00  0.0000000000000D+00  0.0000000000000D+00
   360  3.5900000000000D+00  0.0000000000000D+00  0.0000000000000D+00
   361  3.6000000000000D+00  0.0000000000000D+00  0.0000000000000D+00
   362  3.6100000000000D+00  0.0000000000000D+00  0.0000000000000D+00
   363  3.6200000000000D+00  0.0000000000000D+00  0.0000000000000D+00
   364  3.6300000000000D+00  0.0000000000000D+00  0.0000000000000D+00
   365  3.6400000000000D+00  0.0000000000000D+00  0.0000000000000D+00
   366  3.6500000000000D+00  0.0000000000000D+00  0.0000000000000D+00
   367  3.6600000000000D+00  0.0000000000000D+00  0.0000000000000D+00
   368  3.6700000000000D+00  0.0000000000000D+00  0.0000000000000D+00
   369  3.6800000000000D+00  0.0000000000000D+00  0.0000000000000D+00
   370  3.6900000000000D+00  0.0000000000000D+00  0.0000000000000D+00
   371  3.7000000000000D+00  0.0000000000000D+00  0.0000000000000D+00
   372  3.7100000000000D+00  0.0000000000000D+00  0.0000000000000D+00
   373  3.7200000000000D+00  0.0000000000000D+00  0.0000000000000D+00
   374  3.7300000000000D+00  0.0000000000000D+00  0.0000000000000D+00
   375  3.7400000000000D+00  0.0000000000000D+00  0.0000000000000D+00
   376  3.7500000000000D+00  0.0000000000000D+00  0.0000000000000D+00
   377  3.7600000000000D+00  0.0000000000000D+00  0.0000000000000D+00
   378  3.7700000000000D+00  0.0000000000000D+00  0.0000000000000D+00
   379  3.7800000000000D+00  0.0000000000000D+00  0.0000000000000D+00
   380  3.7900000000000D+00  0.0000000000000D+00  0.0000000000000D+00
   381  3.8000000000000D+00  0.0000000000000D+00  0.0000000000000D+00
   382  3.8100000000000D+00  0.0000000000000D+00  0.0000000000000D+00
   383  3.8200000000000D+00  0.0000000000000D+00  0.0000000000000D+00
   384  3.8300000000000D+00  0.0000000000000D+00  0.0000000000000D+00
   385  3.8400000000000D+00  0.0000000000000D+00  0.0000000000000D+00
   386  3.8500000000000D+00  0.0000000000000D+00  0.0000000000000D+00
   387  3.8600000000000D+00  0.0000000000000D+00  0.0000000000000D+00
   388  3.8700000000000D+00  0.0000000000000D+00  0.0000000000000D+00
   389  3.8800000000000D+00  0.0000000000000D+00  0.0000000000000D+00
   390  3.8900000000000D+00  0.0000000000000D+00  0.0000000000000D+00
   391  3.9000000000000D+00  0.0000000000000D+00  0.0000000000000D+00
   392  3.9100000000000D+00  0.0000000000000D+00  0.0000000000000D+00
   393  3.9200000000000D+00  0.0000000000000D+00  0.0000000000000D+00
   394  3.9300000000000D+00  0.0000000000000D+00  0.0000000000000D+00
   395  3.9400000000000D+00  0.0000000000000D+00  0.0000000000000D+00
   396  3.9500000000000D+00  0.0000000000000D+00  0.0000000000000D+00
   397  3.9600000000000D+00  0.0000000000000D+00  0.0000000000000D+00
   398  3.9700000000000D+00  0.0000000000000D+00  0.0000000000000D+00
   399  3.9800000000000D+00  0.0000000000000D+00  0.0000000000000D+00
   400  3.9900000000000D+00  0.0000000000000D+00  0.0000000000000D+00
   401  4.0000000000000D+00  0.0000000000000D+00  0.0000000000000D+00
   402  4.0100000000000D+00  0.0000000000000D+00  0.0000000000000D+00
   403  4.0200000000000D+00  0.0000000000000D+00  0.0000000000000D+00
   404  4.0300000000000D+00  0.0000000000000D+00  0.0000000000000D+00
   405  4.0400000000000D+00  0.0000000000000D+00  0.0000000000000D+00
   406  4.0500000000000D+00  0.0000000000000D+00  0.0000000000000D+00
   407  4.0600000000000D+00  0.0000000000000D+00  0.0000000000000D+00
   408  4.0700000000000D+00  0.0000000000000D+00  0.0000000000000D+00
   409  4.0800000000000D+00  0.0000000000000D+00  0.0000000000000D+00
   410  4.0900000000000D+00  0.0000000000000D+00  0.0000000000000D+00
   411  4.1000000000000D+00  0.0000000000000D+00  0.0000000000000D+00
   412  4.1100000000000D+00  0.0000000000000D+00  0.0000000000000D+00
   413  4.1200000000000D+00  0.0000000000000D+00  0.0000000000000D+00
   414  4.1300000000000D+00  0.0000000000000D+00  0.0000000000000D+00
   415  4.1400000000000D+00  0.0000000000000D+00  0.0000000000000D+00
   416  4.1500000000000D+00  0.0000000000000D+00  0.0000000000000D+00
   417  4.1600000000000D+00  0.0000000000000D+00  0.0000000000000D+00
   418  4.1700000000000D+00  0.0000000000000D+00  0.0000000000000D+00
   419  4.1800000000000D+00  0.0000000000000D+00  0.0000000000000D+00
   420  4.1900000000000D+00  0.0000000000000D+00  0.0000000000000D+00
   421  4.2000000000000D+00  0.0000000000000D+00  0.0000000000000D+00
   422  4.2100000000000D+00  0.0000000000000D+00  0.0000000000000D+00
   423  4.2200000000000D+00  0.0000000000000D+00  0.0000000000000D+00