Br    ONCVPSP-3.3.0  r_core=   1.81012   1.51356   1.92136
     35.0000     17.0000      220408    zatom,zion,pspd
     8       2   2     4   600     0    pspcod,pspxc,lmax,lloc,mmax,r2well
  5.99000000  0.00000000  0.00000000    rchrg fchrg qchrg
     2     2     2     0     0    nproj
     1     1           extension_switch
   0                         8.5885599278429D+00  9.2311301562380D-01
     1  0.0000000000000D+00  2.6878499426175D-11 -1.3009440746892D-11
     2  1.0000000000000D-02  3.5617884613620D-02 -1.2622478703675D-02
     3  2.0000000000000D-02  7.1231081324498D-02 -2.5251760213500D-02
     4  3.0000000000000D-02  1.0683473736380D-01 -3.7894416900512D-02
     5  4.0000000000000D-02  1.4242367139444D-01 -5.0556561542218D-02
     6  5.0000000000000D-02  1.7799221212995D-01 -6.3243620714414D-02
     7  6.0000000000000D-02  2.1353404041799D-01 -7.5960112000381D-02
     8  7.0000000000000D-02  2.4904203591169D-01 -8.8709426275036D-02
     9  8.0000000000000D-02  2.8450812942527D-01 -1.0149361630857D-01
    10  9.0000000000000D-02  3.1992316203719D-01 -1.1431319291789D-01
    11  1.0000000000000D-01  3.5527675196419D-01 -1.2716692987413D-01
    12  1.1000000000000D-01  3.9055717018446D-01 -1.4005167875102D-01
    13  1.2000000000000D-01  4.2575122573646D-01 -1.5296219487140D-01
    14  1.3000000000000D-01  4.6084416156312D-01 -1.6589097547786D-01
    15  1.4000000000000D-01  4.9581956170926D-01 -1.7882811121780D-01
    16  1.5000000000000D-01  5.3065927061292D-01 -1.9176115199344D-01
    17  1.6000000000000D-01  5.6534332516005D-01 -2.0467498818273D-01
    18  1.7000000000000D-01  5.9984990009645D-01 -2.1755174818804D-01
    19  1.8000000000000D-01  6.3415526731182D-01 -2.3037071321573D-01
    20  1.9000000000000D-01  6.6823376942838D-01 -2.4310825013046D-01
    21  2.0000000000000D-01  7.0205780804130D-01 -2.5573776316424D-01
    22  2.1000000000000D-01  7.3559784687096D-01 -2.6822966519101D-01
    23  2.2000000000000D-01  7.6882242999777D-01 -2.8055136920274D-01
    24  2.3000000000000D-01  8.0169821525980D-01 -2.9266730054333D-01
    25  2.4000000000000D-01  8.3419002280219D-01 -3.0453893037144D-01
    26  2.5000000000000D-01  8.6626089867590D-01 -3.1612483073276D-01
    27  2.6000000000000D-01  8.9787219329197D-01 -3.2738075152662D-01
    28  2.7000000000000D-01  9.2898365444706D-01 -3.3825971955124D-01
    29  2.8000000000000D-01  9.5955353454695D-01 -3.4871215970618D-01
    30  2.9000000000000D-01  9.8953871156715D-01 -3.5868603832057D-01
    31  3.0000000000000D-01  1.0188948232050D+00 -3.6812702846125D-01
    32  3.1000000000000D-01  1.0475764135950D+00 -3.7697869695655D-01
    33  3.2000000000000D-01  1.0755370918816D+00 -3.8518271274960D-01
    34  3.3000000000000D-01  1.1027297018655D+00 -3.9267907607041D-01
    35  3.4000000000000D-01  1.1291065018735D+00 -3.9940636778854D-01
    36  3.5000000000000D-01  1.1546193539298D+00 -4.0530201817908D-01
    37  3.6000000000000D-01  1.1792199212512D+00 -4.1030259420467D-01
    38  3.7000000000000D-01  1.2028598730286D+00 -4.1434410428533D-01
    39  3.8000000000000D-01  1.2254910954092D+00 -4.1736231939762D-01
    40  3.9000000000000D-01  1.2470659075491D+00 -4.1929310921574D-01
    41  4.0000000000000D-01  1.2675372815698D+00 -4.2007279187951D-01
    42  4.1000000000000D-01  1.2868590652187D+00 -4.1963849585060D-01
    43  4.2000000000000D-01  1.3049862060109D+00 -4.1792853219762D-01
    44  4.3000000000000D-01  1.3218749756130D+00 -4.1488277553512D-01
    45  4.4000000000000D-01  1.3374831932176D+00 -4.1044305173244D-01
    46  4.5000000000000D-01  1.3517704466560D+00 -4.0455353040462D-01
    47  4.6000000000000D-01  1.3646983099980D+00 -3.9716112010316D-01
    48  4.7000000000000D-01  1.3762305564038D+00 -3.8821586403770D-01
    49  4.8000000000000D-01  1.3863333650058D+00 -3.7767133408307D-01
    50  4.9000000000000D-01  1.3949755206278D+00 -3.6548502076040D-01
    51  5.0000000000000D-01  1.4021286051805D+00 -3.5161871682643D-01
    52  5.1000000000000D-01  1.4077671796105D+00 -3.3603889206313D-01
    53  5.2000000000000D-01  1.4118689553272D+00 -3.1871705683125D-01
    54  5.3000000000000D-01  1.4144149540835D+00 -2.9963011193674D-01
    55  5.4000000000000D-01  1.4153896553441D+00 -2.7876068235830D-01
    56  5.5000000000000D-01  1.4147811302397D+00 -2.5609743240070D-01
    57  5.6000000000000D-01  1.4125811612747D+00 -2.3163535986796D-01
    58  5.7000000000000D-01  1.4087853470286D+00 -2.0537606689921D-01
    59  5.8000000000000D-01  1.4033931911722D+00 -1.7732800517214D-01
    60  5.9000000000000D-01  1.3964081751999D+00 -1.4750669326034D-01
    61  6.0000000000000D-01  1.3878378143677D+00 -1.1593490402715D-01
    62  6.1000000000000D-01  1.3776936964153D+00 -8.2642820052587D-02
    63  6.2000000000000D-01  1.3659915027396D+00 -4.7668155219834D-02
    64  6.3000000000000D-01  1.3527510117868D+00 -1.1056240734526D-02
    65  6.4000000000000D-01  1.3379960845184D+00  2.7139925988375D-02
    66  6.5000000000000D-01  1.3217546319080D+00  6.6859670957675D-02
    67  6.6000000000000D-01  1.3040585645191D+00  1.0803467295472D-01
    68  6.7000000000000D-01  1.2849437243124D+00  1.5058903358864D-01
    69  6.8000000000000D-01  1.2644497989230D+00  1.9443938883061D-01
    70  6.9000000000000D-01  1.2426202187465D+00  2.3949506256989D-01
    71  7.0000000000000D-01  1.2195020372613D+00  2.8565826249473D-01
    72  7.1000000000000D-01  1.1951457951046D+00  3.3282431835269D-01
    73  7.2000000000000D-01  1.1696053685075D+00  3.8088196238788D-01
    74  7.3000000000000D-01  1.1429378027761D+00  4.2971365149085D-01
    75  7.4000000000000D-01  1.1152031315846D+00  4.7919593032977D-01
    76  7.5000000000000D-01  1.0864641829212D+00  5.2919983446259D-01
    77  7.6000000000000D-01  1.0567863725979D+00  5.7959133215958D-01
    78  7.7000000000000D-01  1.0262374862977D+00  6.3023180339714D-01
    79  7.8000000000000D-01  9.9488745119208D-01  6.8097855421726D-01
    80  7.9000000000000D-01  9.6280809821707D-01  7.3168536438586D-01
    81  8.0000000000000D-01  9.3007291613672D-01  7.8220306602993D-01
    82  8.1000000000000D-01  8.9675679856894D-01  8.3238015068708D-01
    83  8.2000000000000D-01  8.6293578517765D-01  8.8206340196690D-01
    84  8.3000000000000D-01  8.2868679826331D-01  9.3109855080203D-01
    85  8.4000000000000D-01  7.9408737600284D-01  9.7933095005870D-01
    86  8.5000000000000D-01  7.5921540360211D-01  1.0266062650864D+00
    87  8.6000000000000D-01  7.2414884362954D-01  1.0727711766127D+00
    88  8.7000000000000D-01  6.8896546679739D-01  1.1176740922375D+00
    89  8.8000000000000D-01  6.5374258444844D-01  1.1611658626461D+00
    90  8.9000000000000D-01  6.1855678399000D-01  1.2031004985558D+00
    91  9.0000000000000D-01  5.8348366849468D-01  1.2433358843212D+00
    92  9.1000000000000D-01  5.4859760165837D-01  1.2817344840657D+00
    93  9.2000000000000D-01  5.1397145927024D-01  1.3181640361702D+00
    94  9.3000000000000D-01  4.7967638830859D-01  1.3524982319469D+00
    95  9.4000000000000D-01  4.4578157472864D-01  1.3846173743386D+00
    96  9.5000000000000D-01  4.1235402095639D-01  1.4144090125396D+00
    97  9.6000000000000D-01  3.7945833404450D-01  1.4417685485031D+00
    98  9.7000000000000D-01  3.4715652538415D-01  1.4665998114087D+00
    99  9.8000000000000D-01  3.1550782280105D-01  1.4888155962892D+00
   100  9.9000000000000D-01  2.8456849579223D-01  1.5083381631795D+00
   101  1.0000000000000D+00  2.5439169458793D-01  1.5250996933323D+00
   102  1.0100000000000D+00  2.2502730364608D-01  1.5390426992566D+00
   103  1.0200000000000D+00  1.9652181010872D-01  1.5501203855692D+00
   104  1.0300000000000D+00  1.6891818766795D-01  1.5582969579137D+00
   105  1.0400000000000D+00  1.4225579620923D-01  1.5635478774741D+00
   106  1.0500000000000D+00  1.1657029751696D-01  1.5658600589123D+00
   107  1.0600000000000D+00  9.1893587242360D-02  1.5652320098853D+00
   108  1.0700000000000D+00  6.8253743253716D-02  1.5616739106256D+00
   109  1.0800000000000D+00  4.5674990404928D-02  1.5552076324241D+00
   110  1.0900000000000D+00  2.4177681678598D-02  1.5458666942161D+00
   111  1.1000000000000D+00  3.7782955840684D-03  1.5336961568206D+00
   112  1.1100000000000D+00 -1.5510550394067D-02  1.5187524548042D+00
   113  1.1200000000000D+00 -3.3680070567944D-02  1.5011031662796D+00
   114  1.1300000000000D+00 -5.0725266390854D-02  1.4808267213874D+00
   115  1.1400000000000D+00 -6.6644866777056D-02  1.4580120504904D+00
   116  1.1500000000000D+00 -8.1441253887107D-02  1.4327581736156D+00
   117  1.1600000000000D+00 -9.5120374913446D-02  1.4051737329618D+00
   118  1.1700000000000D+00 -1.0769164046713D-01  1.3753764707144D+00
   119  1.1800000000000D+00 -1.1916781020450D-01  1.3434926546526D+00
   120  1.1900000000000D+00 -1.2956486640033D-01  1.3096564545169D+00
   121  1.2000000000000D+00 -1.3890187620335D-01  1.2740092723355D+00
   122  1.2100000000000D+00 -1.4720084334639D-01  1.2366990301884D+00
   123  1.2200000000000D+00 -1.5448655012253D-01  1.1978794192072D+00
   124  1.2300000000000D+00 -1.6078639046553D-01  1.1577091138769D+00
   125  1.2400000000000D+00 -1.6613019498980D-01  1.1163509558842D+00
   126  1.2500000000000D+00 -1.7055004886402D-01  1.0739711119409D+00
   127  1.2600000000000D+00 -1.7408010341003D-01  1.0307382102717D+00
   128  1.2700000000000D+00 -1.7675638231468D-01  9.8682246049686D-01
   129  1.2800000000000D+00 -1.7861658335421D-01  9.4239476176102D-01
   130  1.2900000000000D+00 -1.7969987652282D-01  8.9762580409823D-01
   131  1.3000000000000D+00 -1.8004669944215D-01  8.5268516795249D-01
   132  1.3100000000000D+00 -1.7969855093761D-01  8.0774042688315D-01
   133  1.3200000000000D+00 -1.7869778362361D-01  7.6295625838179D-01
   134  1.3300000000000D+00 -1.7708739633087D-01  7.1849356764166D-01
   135  1.3400000000000D+00 -1.7491082720515D-01  6.7450862918306D-01
   136  1.3500000000000D+00 -1.7221174822856D-01  6.3115225082571D-01
   137  1.3600000000000D+00 -1.6903386193550D-01  5.8856896459515D-01
   138  1.3700000000000D+00 -1.6542070104560D-01  5.4689624892800D-01
   139  1.3800000000000D+00 -1.6141543164792D-01  5.0626378592704D-01
   140  1.3900000000000D+00 -1.5706066064690D-01  4.6679275795620D-01
   141  1.4000000000000D+00 -1.5239824800691D-01  4.2859518670273D-01
   142  1.4100000000000D+00 -1.4746912436935D-01  3.9177331802505D-01
   143  1.4200000000000D+00 -1.4231311459628D-01  3.5641905585091D-01
   144  1.4300000000000D+00 -1.3696876761585D-01  3.2261344695362D-01
   145  1.4400000000000D+00 -1.3147319310551D-01  2.9042621972807D-01
   146  1.4500000000000D+00 -1.2586190529392D-01  2.5991537804876D-01
   147  1.4600000000000D+00 -1.2016867425198D-01  2.3112685196106D-01
   148  1.4700000000000D+00 -1.1442538405298D-01  2.0409420155586D-01
   149  1.4800000000000D+00 -1.0866190216256D-01  1.7883839717961D-01
   150  1.4900000000000D+00 -1.0290595144364D-01  1.5536762640286D-01
   151  1.5000000000000D+00 -9.7183025862859D-02  1.3367734993291D-01
   152  1.5100000000000D+00 -9.1516173318908D-02  1.1374966355341D-01
   153  1.5200000000000D+00 -8.5926013619869D-02  9.5553917773212D-02
   154  1.5300000000000D+00 -8.0431001425339D-02  7.9048712419382D-02
   155  1.5400000000000D+00 -7.5047679169454D-02  6.4183634338385D-02
   156  1.5500000000000D+00 -6.9791069740877D-02  5.0901642154234D-02
   157  1.5600000000000D+00 -6.4674727362556D-02  3.9139585271974D-02
   158  1.5700000000000D+00 -5.9710727682880D-02  2.8828330703328D-02
   159  1.5800000000000D+00 -5.4909782835383D-02  1.9893640624147D-02
   160  1.5900000000000D+00 -5.0281298331132D-02  1.2256709295058D-02
   161  1.6000000000000D+00 -4.5833454454566D-02  5.8348458940252D-03
   162  1.6100000000000D+00 -4.1573283859059D-02  5.4213863217178D-04
   163  1.6200000000000D+00 -3.7506752129758D-02 -3.7098616244059D-03
   164  1.6300000000000D+00 -3.3638839563514D-02 -7.0114497214838D-03
   165  1.6400000000000D+00 -2.9973623504623D-02 -9.4540709396470D-03
   166  1.6500000000000D+00 -2.6514360586097D-02 -1.1129627258988D-02
   167  1.6600000000000D+00 -2.3263568233117D-02 -1.2129789753006D-02
   168  1.6700000000000D+00 -2.0223104799454D-02 -1.2545322153202D-02
   169  1.6800000000000D+00 -1.7394247739383D-02 -1.2465420078143D-02
   170  1.6900000000000D+00 -1.4777769211802D-02 -1.1977070822260D-02
   171  1.7000000000000D+00 -1.2374008578441D-02 -1.1164437897964D-02
   172  1.7100000000000D+00 -1.0182941238050D-02 -1.0108274950882D-02
   173  1.7200000000000D+00 -8.2042433124985D-03 -8.8853729001990D-03
   174  1.7300000000000D+00 -6.4373517092733D-03 -7.5680443448310D-03
   175  1.7400000000000D+00 -4.8815191029877D-03 -6.2236489177314D-03
   176  1.7500000000000D+00 -3.5361517180486D-03 -4.9153611847760D-03
   177  1.7600000000000D+00 -2.3999952542752D-03 -3.6982205292794D-03
   178  1.7700000000000D+00 -1.4703169620024D-03 -2.6124783853138D-03
   179  1.7800000000000D+00 -7.4731336508674D-04 -1.7073332683272D-03
   180  1.7900000000000D+00 -2.3521643526184D-04 -1.0678365704190D-03
   181  1.8000000000000D+00  7.0567623065198D-05 -7.1865982481254D-04
   182  1.8100000000000D+00  1.8078579948296D-04 -4.9923429611720D-04
   183  1.8200000000000D+00  1.2389897639059D-04 -2.4368484979442D-04
   184  1.8300000000000D+00  1.6980060148581D-05 -2.9089335034585D-05
   185  1.8400000000000D+00 -2.6146308563231D-05  4.2219348499157D-05
   186  1.8500000000000D+00 -1.1536671754065D-05  1.7652244553612D-05
   187  1.8600000000000D+00  4.7428846987589D-06 -8.5219743296473D-06
   188  1.8700000000000D+00  3.9903391124016D-06 -6.9997319171861D-06
   189  1.8800000000000D+00 -2.9904150714096D-07  8.2066124797779D-07
   190  1.8900000000000D+00 -4.6335044397416D-07  1.2715751643923D-06
   191  1.9000000000000D+00  0.0000000000000D+00  0.0000000000000D+00
   192  1.9100000000000D+00  0.0000000000000D+00  0.0000000000000D+00
   193  1.9200000000000D+00  0.0000000000000D+00  0.0000000000000D+00
   194  1.9300000000000D+00  0.0000000000000D+00  0.0000000000000D+00
   195  1.9400000000000D+00  0.0000000000000D+00  0.0000000000000D+00
   196  1.9500000000000D+00  0.0000000000000D+00  0.0000000000000D+00
   197  1.9600000000000D+00  0.0000000000000D+00  0.0000000000000D+00
   198  1.9700000000000D+00  0.0000000000000D+00  0.0000000000000D+00
   199  1.9800000000000D+00  0.0000000000000D+00  0.0000000000000D+00
   200  1.9900000000000D+00  0.0000000000000D+00  0.0000000000000D+00
   201  2.0000000000000D+00  0.0000000000000D+00  0.0000000000000D+00
   202  2.0100000000000D+00  0.0000000000000D+00  0.0000000000000D+00
   203  2.0200000000000D+00  0.0000000000000D+00  0.0000000000000D+00
   204  2.0300000000000D+00  0.0000000000000D+00  0.0000000000000D+00
   205  2.0400000000000D+00  0.0000000000000D+00  0.0000000000000D+00
   206  2.0500000000000D+00  0.0000000000000D+00  0.0000000000000D+00
   207  2.0600000000000D+00  0.0000000000000D+00  0.0000000000000D+00
   208  2.0700000000000D+00  0.0000000000000D+00  0.0000000000000D+00
   209  2.0800000000000D+00  0.0000000000000D+00  0.0000000000000D+00
   210  2.0900000000000D+00  0.0000000000000D+00  0.0000000000000D+00
   211  2.1000000000000D+00  0.0000000000000D+00  0.0000000000000D+00
   212  2.1100000000000D+00  0.0000000000000D+00  0.0000000000000D+00
   213  2.1200000000000D+00  0.0000000000000D+00  0.0000000000000D+00
   214  2.1300000000000D+00  0.0000000000000D+00  0.0000000000000D+00
   215  2.1400000000000D+00  0.0000000000000D+00  0.0000000000000D+00
   216  2.1500000000000D+00  0.0000000000000D+00  0.0000000000000D+00
   217  2.1600000000000D+00  0.0000000000000D+00  0.0000000000000D+00
   218  2.1700000000000D+00  0.0000000000000D+00  0.0000000000000D+00
   219  2.1800000000000D+00  0.0000000000000D+00  0.0000000000000D+00
   220  2.1900000000000D+00  0.0000000000000D+00  0.0000000000000D+00
   221  2.2000000000000D+00  0.0000000000000D+00  0.0000000000000D+00
   222  2.2100000000000D+00  0.0000000000000D+00  0.0000000000000D+00
   223  2.2200000000000D+00  0.0000000000000D+00  0.0000000000000D+00
   224  2.2300000000000D+00  0.0000000000000D+00  0.0000000000000D+00
   225  2.2400000000000D+00  0.0000000000000D+00  0.0000000000000D+00
   226  2.2500000000000D+00  0.0000000000000D+00  0.0000000000000D+00
   227  2.2600000000000D+00  0.0000000000000D+00  0.0000000000000D+00
   228  2.2700000000000D+00  0.0000000000000D+00  0.0000000000000D+00
   229  2.2800000000000D+00  0.0000000000000D+00  0.0000000000000D+00
   230  2.2900000000000D+00  0.0000000000000D+00  0.0000000000000D+00
   231  2.3000000000000D+00  0.0000000000000D+00  0.0000000000000D+00
   232  2.3100000000000D+00  0.0000000000000D+00  0.0000000000000D+00
   233  2.3200000000000D+00  0.0000000000000D+00  0.0000000000000D+00
   234  2.3300000000000D+00  0.0000000000000D+00  0.0000000000000D+00
   235  2.3400000000000D+00  0.0000000000000D+00  0.0000000000000D+00
   236  2.3500000000000D+00  0.0000000000000D+00  0.0000000000000D+00
   237  2.3600000000000D+00  0.0000000000000D+00  0.0000000000000D+00
   238  2.3700000000000D+00  0.0000000000000D+00  0.0000000000000D+00
   239  2.3800000000000D+00  0.0000000000000D+00  0.0000000000000D+00
   240  2.3900000000000D+00  0.0000000000000D+00  0.0000000000000D+00
   241  2.4000000000000D+00  0.0000000000000D+00  0.0000000000000D+00
   242  2.4100000000000D+00  0.0000000000000D+00  0.0000000000000D+00
   243  2.4200000000000D+00  0.0000000000000D+00  0.0000000000000D+00
   244  2.4300000000000D+00  0.0000000000000D+00  0.0000000000000D+00
   245  2.4400000000000D+00  0.0000000000000D+00  0.0000000000000D+00
   246  2.4500000000000D+00  0.0000000000000D+00  0.0000000000000D+00
   247  2.4600000000000D+00  0.0000000000000D+00  0.0000000000000D+00
   248  2.4700000000000D+00  0.0000000000000D+00  0.0000000000000D+00
   249  2.4800000000000D+00  0.0000000000000D+00  0.0000000000000D+00
   250  2.4900000000000D+00  0.0000000000000D+00  0.0000000000000D+00
   251  2.5000000000000D+00  0.0000000000000D+00  0.0000000000000D+00
   252  2.5100000000000D+00  0.0000000000000D+00  0.0000000000000D+00
   253  2.5200000000000D+00  0.0000000000000D+00  0.0000000000000D+00
   254  2.5300000000000D+00  0.0000000000000D+00  0.0000000000000D+00
   255  2.5400000000000D+00  0.0000000000000D+00  0.0000000000000D+00
   256  2.5500000000000D+00  0.0000000000000D+00  0.0000000000000D+00
   257  2.5600000000000D+00  0.0000000000000D+00  0.0000000000000D+00
   258  2.5700000000000D+00  0.0000000000000D+00  0.0000000000000D+00
   259  2.5800000000000D+00  0.0000000000000D+00  0.0000000000000D+00
   260  2.5900000000000D+00  0.0000000000000D+00  0.0000000000000D+00
   261  2.6000000000000D+00  0.0000000000000D+00  0.0000000000000D+00
   262  2.6100000000000D+00  0.0000000000000D+00  0.0000000000000D+00
   263  2.6200000000000D+00  0.0000000000000D+00  0.0000000000000D+00
   264  2.6300000000000D+00  0.0000000000000D+00  0.0000000000000D+00
   265  2.6400000000000D+00  0.0000000000000D+00  0.0000000000000D+00
   266  2.6500000000000D+00  0.0000000000000D+00  0.0000000000000D+00
   267  2.6600000000000D+00  0.0000000000000D+00  0.0000000000000D+00
   268  2.6700000000000D+00  0.0000000000000D+00  0.0000000000000D+00
   269  2.6800000000000D+00  0.0000000000000D+00  0.0000000000000D+00
   270  2.6900000000000D+00  0.0000000000000D+00  0.0000000000000D+00
   271  2.7000000000000D+00  0.0000000000000D+00  0.0000000000000D+00
   272  2.7100000000000D+00  0.0000000000000D+00  0.0000000000000D+00
   273  2.7200000000000D+00  0.0000000000000D+00  0.0000000000000D+00
   274  2.7300000000000D+00  0.0000000000000D+00  0.0000000000000D+00
   275  2.7400000000000D+00  0.0000000000000D+00  0.0000000000000D+00
   276  2.7500000000000D+00  0.0000000000000D+00  0.0000000000000D+00
   277  2.7600000000000D+00  0.0000000000000D+00  0.0000000000000D+00
   278  2.7700000000000D+00  0.0000000000000D+00  0.0000000000000D+00
   279  2.7800000000000D+00  0.0000000000000D+00  0.0000000000000D+00
   280  2.7900000000000D+00  0.0000000000000D+00  0.0000000000000D+00
   281  2.8000000000000D+00  0.0000000000000D+00  0.0000000000000D+00
   282  2.8100000000000D+00  0.0000000000000D+00  0.0000000000000D+00
   283  2.8200000000000D+00  0.0000000000000D+00  0.0000000000000D+00
   284  2.8300000000000D+00  0.0000000000000D+00  0.0000000000000D+00
   285  2.8400000000000D+00  0.0000000000000D+00  0.0000000000000D+00
   286  2.8500000000000D+00  0.0000000000000D+00  0.0000000000000D+00
   287  2.8600000000000D+00  0.0000000000000D+00  0.0000000000000D+00
   288  2.8700000000000D+00  0.0000000000000D+00  0.0000000000000D+00
   289  2.8800000000000D+00  0.0000000000000D+00  0.0000000000000D+00
   290  2.8900000000000D+00  0.0000000000000D+00  0.0000000000000D+00
   291  2.9000000000000D+00  0.0000000000000D+00  0.0000000000000D+00
   292  2.9100000000000D+00  0.0000000000000D+00  0.0000000000000D+00
   293  2.9200000000000D+00  0.0000000000000D+00  0.0000000000000D+00
   294  2.9300000000000D+00  0.0000000000000D+00  0.0000000000000D+00
   295  2.9400000000000D+00  0.0000000000000D+00  0.0000000000000D+00
   296  2.9500000000000D+00  0.0000000000000D+00  0.0000000000000D+00
   297  2.9600000000000D+00  0.0000000000000D+00  0.0000000000000D+00
   298  2.9700000000000D+00  0.0000000000000D+00  0.0000000000000D+00
   299  2.9800000000000D+00  0.0000000000000D+00  0.0000000000000D+00
   300  2.9900000000000D+00  0.0000000000000D+00  0.0000000000000D+00
   301  3.0000000000000D+00  0.0000000000000D+00  0.0000000000000D+00
   302  3.0100000000000D+00  0.0000000000000D+00  0.0000000000000D+00
   303  3.0200000000000D+00  0.0000000000000D+00  0.0000000000000D+00
   304  3.0300000000000D+00  0.0000000000000D+00  0.0000000000000D+00
   305  3.0400000000000D+00  0.0000000000000D+00  0.0000000000000D+00
   306  3.0500000000000D+00  0.0000000000000D+00  0.0000000000000D+00
   307  3.0600000000000D+00  0.0000000000000D+00  0.0000000000000D+00
   308  3.0700000000000D+00  0.0000000000000D+00  0.0000000000000D+00
   309  3.0800000000000D+00  0.0000000000000D+00  0.0000000000000D+00
   310  3.0900000000000D+00  0.0000000000000D+00  0.0000000000000D+00
   311  3.1000000000000D+00  0.0000000000000D+00  0.0000000000000D+00
   312  3.1100000000000D+00  0.0000000000000D+00  0.0000000000000D+00
   313  3.1200000000000D+00  0.0000000000000D+00  0.0000000000000D+00
   314  3.1300000000000D+00  0.0000000000000D+00  0.0000000000000D+00
   315  3.1400000000000D+00  0.0000000000000D+00  0.0000000000000D+00
   316  3.1500000000000D+00  0.0000000000000D+00  0.0000000000000D+00
   317  3.1600000000000D+00  0.0000000000000D+00  0.0000000000000D+00
   318  3.1700000000000D+00  0.0000000000000D+00  0.0000000000000D+00
   319  3.1800000000000D+00  0.0000000000000D+00  0.0000000000000D+00
   320  3.1900000000000D+00  0.0000000000000D+00  0.0000000000000D+00
   321  3.2000000000000D+00  0.0000000000000D+00  0.0000000000000D+00
   322  3.2100000000000D+00  0.0000000000000D+00  0.0000000000000D+00
   323  3.2200000000000D+00  0.0000000000000D+00  0.0000000000000D+00
   324  3.2300000000000D+00  0.0000000000000D+00  0.0000000000000D+00
   325  3.2400000000000D+00  0.0000000000000D+00  0.0000000000000D+00
   326  3.2500000000000D+00  0.0000000000000D+00  0.0000000000000D+00
   327  3.2600000000000D+00  0.0000000000000D+00  0.0000000000000D+00
   328  3.2700000000000D+00  0.0000000000000D+00  0.0000000000000D+00
   329  3.2800000000000D+00  0.0000000000000D+00  0.0000000000000D+00
   330  3.2900000000000D+00  0.0000000000000D+00  0.0000000000000D+00
   331  3.3000000000000D+00  0.0000000000000D+00  0.0000000000000D+00
   332  3.3100000000000D+00  0.0000000000000D+00  0.0000000000000D+00
   333  3.3200000000000D+00  0.0000000000000D+00  0.0000000000000D+00
   334  3.3300000000000D+00  0.0000000000000D+00  0.0000000000000D+00
   335  3.3400000000000D+00  0.0000000000000D+00  0.0000000000000D+00
   336  3.3500000000000D+00  0.0000000000000D+00  0.0000000000000D+00
   337  3.3600000000000D+00  0.0000000000000D+00  0.0000000000000D+00
   338  3.3700000000000D+00  0.0000000000000D+00  0.0000000000000D+00
   339  3.3800000000000D+00  0.0000000000000D+00  0.0000000000000D+00
   340  3.3900000000000D+00  0.0000000000000D+00  0.0000000000000D+00
   341  3.4000000000000D+00  0.0000000000000D+00  0.0000000000000D+00
   342  3.4100000000000D+00  0.0000000000000D+00  0.0000000000000D+00
   343  3.4200000000000D+00  0.0000000000000D+00  0.0000000000000D+00
   344  3.4300000000000D+00  0.0000000000000D+00  0.0000000000000D+00
   345  3.4400000000000D+00  0.0000000000000D+00  0.0000000000000D+00
   346  3.4500000000000D+00  0.0000000000000D+00  0.0000000000000D+00
   347  3.4600000000000D+00  0.0000000000000D+00  0.0000000000000D+00
   348  3.4700000000000D+00  0.0000000000000D+00  0.0000000000000D+00
   349  3.4800000000000D+00  0.0000000000000D+00  0.0000000000000D+00
   350  3.4900000000000D+00  0.0000000000000D+00  0.0000000000000D+00
   351  3.5000000000000D+00  0.0000000000000D+00  0.0000000000000D+00
   352  3.5100000000000D+00  0.0000000000000D+00  0.0000000000000D+00
   353  3.5200000000000D+00  0.0000000000000D+00  0.0000000000000D+00
   354  3.5300000000000D+00  0.0000000000000D+00  0.0000000000000D+00
   355  3.5400000000000D+00  0.0000000000000D+00  0.0000000000000D+00
   356  3.5500000000000D+00  0.0000000000000D+00  0.0000000000000D+00
   357  3.5600000000000D+00  0.0000000000000D+00  0.0000000000000D+00
   358  3.5700000000000D+00  0.0000000000000D+00  0.0000000000000D+00
   359  3.5800000000000D+00  0.0000000000000D+00  0.0000000000000D+00
   360  3.5900000000000D+00  0.0000000000000D+00  0.0000000000000D+00
   361  3.6000000000000D+00  0.0000000000000D+00  0.0000000000000D+00
   362  3.6100000000000D+00  0.0000000000000D+00  0.0000000000000D+00
   363  3.6200000000000D+00  0.0000000000000D+00  0.0000000000000D+00
   364  3.6300000000000D+00  0.0000000000000D+00  0.0000000000000D+00
   365  3.6400000000000D+00  0.0000000000000D+00  0.0000000000000D+00
   366  3.6500000000000D+00  0.0000000000000D+00  0.0000000000000D+00
   367  3.6600000000000D+00  0.0000000000000D+00  0.0000000000000D+00
   368  3.6700000000000D+00  0.0000000000000D+00  0.0000000000000D+00
   369  3.6800000000000D+00  0.0000000000000D+00  0.0000000000000D+00
   370  3.6900000000000D+00  0.0000000000000D+00  0.0000000000000D+00
   371  3.7000000000000D+00  0.0000000000000D+00  0.0000000000000D+00
   372  3.7100000000000D+00  0.0000000000000D+00  0.0000000000000D+00
   373  3.7200000000000D+00  0.0000000000000D+00  0.0000000000000D+00
   374  3.7300000000000D+00  0.0000000000000D+00  0.0000000000000D+00
   375  3.7400000000000D+00  0.0000000000000D+00  0.0000000000000D+00
   376  3.7500000000000D+00  0.0000000000000D+00  0.0000000000000D+00
   377  3.7600000000000D+00  0.0000000000000D+00  0.0000000000000D+00
   378  3.7700000000000D+00  0.0000000000000D+00  0.0000000000000D+00
   379  3.7800000000000D+00  0.0000000000000D+00  0.0000000000000D+00
   380  3.7900000000000D+00  0.0000000000000D+00  0.0000000000000D+00
   381  3.8000000000000D+00  0.0000000000000D+00  0.0000000000000D+00
   382  3.8100000000000D+00  0.0000000000000D+00  0.0000000000000D+00
   383  3.8200000000000D+00  0.0000000000000D+00  0.0000000000000D+00
   384  3.8300000000000D+00  0.0000000000000D+00  0.0000000000000D+00
   385  3.8400000000000D+00  0.0000000000000D+00  0.0000000000000D+00
   386  3.8500000000000D+00  0.0000000000000D+00  0.0000000000000D+00
   387  3.8600000000000D+00  0.0000000000000D+00  0.0000000000000D+00
   388  3.8700000000000D+00  0.0000000000000D+00  0.0000000000000D+00
   389  3.8800000000000D+00  0.0000000000000D+00  0.0000000000000D+00
   390  3.8900000000000D+00  0.0000000000000D+00  0.0000000000000D+00
   391  3.9000000000000D+00  0.0000000000000D+00  0.0000000000000D+00
   392  3.9100000000000D+00  0.0000000000000D+00  0.0000000000000D+00
   393  3.9200000000000D+00  0.0000000000000D+00  0.0000000000000D+00
   394  3.9300000000000D+00  0.0000000000000D+00  0.0000000000000D+00
   395  3.9400000000000D+00  0.0000000000000D+00  0.0000000000000D+00
   396  3.9500000000000D+00  0.0000000000000D+00  0.0000000000000D+00
   397  3.9600000000000D+00  0.0000000000000D+00  0.0000000000000D+00
   398  3.9700000000000D+00  0.0000000000000D+00  0.0000000000000D+00
   399  3.9800000000000D+00  0.0000000000000D+00  0.0000000000000D+00
   400  3.9900000000000D+00  0.0000000000000D+00  0.0000000000000D+00
   401  4.0000000000000D+00  0.0000000000000D+00  0.0000000000000D+00
   402  4.0100000000000D+00  0.0000000000000D+00  0.0000000000000D+00
   403  4.0200000000000D+00  0.0000000000000D+00  0.0000000000000D+00
   404  4.0300000000000D+00  0.0000000000000D+00  0.0000000000000D+00
   405  4.0400000000000D+00  0.0000000000000D+00  0.0000000000000D+00
   406  4.0500000000000D+00  0.0000000000000D+00  0.0000000000000D+00
   407  4.0600000000000D+00  0.0000000000000D+00  0.0000000000000D+00
   408  4.0700000000000D+00  0.0000000000000D+00  0.0000000000000D+00
   409  4.0800000000000D+00  0.0000000000000D+00  0.0000000000000D+00
   410  4.0900000000000D+00  0.0000000000000D+00  0.0000000000000D+00
   411  4.1000000000000D+00  0.0000000000000D+00  0.0000000000000D+00
   412  4.1100000000000D+00  0.0000000000000D+00  0.0000000000000D+00
   413  4.1200000000000D+00  0.0000000000000D+00  0.0000000000000D+00
   414  4.1300000000000D+00  0.0000000000000D+00  0.0000000000000D+00
   415  4.1400000000000D+00  0.0000000000000D+00  0.0000000000000D+00
   416  4.1500000000000D+00  0.0000000000000D+00  0.0000000000000D+00
   417  4.1600000000000D+00  0.0000000000000D+00  0.0000000000000D+00
   418  4.1700000000000D+00  0.0000000000000D+00  0.0000000000000D+00
   419  4.1800000000000D+00  0.0000000000000D+00  0.0000000000000D+00
   420  4.1900000000000D+00  0.0000000000000D+00  0.0000000000000D+00
   421  4.2000000000000D+00  0.0000000000000D+00  0.0000000000000D+00
   422  4.2100000000000D+00  0.0000000000000D+00  0.0000000000000D+00