Br    ONCVPSP-3.3.0  r_core=   1.20662   1.40902   1.60658
     35.0000     25.0000      220408    zatom,zion,pspd
     8       2   2     4   600     0    pspcod,pspxc,lmax,lloc,mmax,r2well
  5.99000000  0.00000000  0.00000000    rchrg fchrg qchrg
     2     2     2     0     0    nproj
     1     1           extension_switch
   0                        -3.7045033811809D+00  3.2931142362496D+00
     1  0.0000000000000D+00 -1.2151585293552D-10 -2.5614934617835D-09
     2  1.0000000000000D-02  5.4857190737527D-02 -9.6762247131559D-02
     3  2.0000000000000D-02  1.0963737038870D-01 -1.9315455420334D-01
     4  3.0000000000000D-02  1.6426370459510D-01 -2.8880676856049D-01
     5  4.0000000000000D-02  2.1865971070449D-01 -3.8334834670309D-01
     6  5.0000000000000D-02  2.7274942928149D-01 -4.7640824406109D-01
     7  6.0000000000000D-02  3.2645759049536D-01 -5.6761490515329D-01
     8  7.0000000000000D-02  3.7970977382260D-01 -6.5659638453392D-01
     9  8.0000000000000D-02  4.3243255962374D-01 -7.4298062636862D-01
    10  9.0000000000000D-02  4.8455367130149D-01 -8.2639592735366D-01
    11  1.0000000000000D-01  5.3600210692023D-01 -9.0647160404479D-01
    12  1.1000000000000D-01  5.8670825936041D-01 -9.8283888155178D-01
    13  1.2000000000000D-01  6.3660402429336D-01 -1.0551320160437D+00
    14  1.3000000000000D-01  6.8562289548903D-01 -1.1229896586684D+00
    15  1.4000000000000D-01  7.3370004720651D-01 -1.1860564633949D+00
    16  1.5000000000000D-01  7.8077240366195D-01 -1.2439849360109D+00
    17  1.6000000000000D-01  8.2677869581561D-01 -1.2964375161495D+00
    18  1.7000000000000D-01  8.7165950596583D-01 -1.3430888788414D+00
    19  1.8000000000000D-01  9.1535730087742D-01 -1.3836284368024D+00
    20  1.9000000000000D-01  9.5781645440202D-01 -1.4177630195391D+00
    21  2.0000000000000D-01  9.9898326076366D-01 -1.4452197004815D+00
    22  2.1000000000000D-01  1.0388059398801D+00 -1.4657487388163D+00
    23  2.2000000000000D-01  1.0772346362658D+00 -1.4791265985655D+00
    24  2.3000000000000D-01  1.1142214132118D+00 -1.4851590038194D+00
    25  2.4000000000000D-01  1.1497202440602D+00 -1.4836839859518D+00
    26  2.5000000000000D-01  1.1836870024770D+00 -1.4745748761776D+00
    27  2.6000000000000D-01  1.2160794536871D+00 -1.4577431950179D+00
    28  2.7000000000000D-01  1.2468572486514D+00 -1.4331413891562D+00
    29  2.8000000000000D-01  1.2759819231487D+00 -1.4007653658304D+00
    30  2.9000000000000D-01  1.3034169036742D+00 -1.3606567753456D+00
    31  3.0000000000000D-01  1.3291275219657D+00 -1.3129049935096D+00
    32  3.1000000000000D-01  1.3530810398459D+00 -1.2576487578020D+00
    33  3.2000000000000D-01  1.3752466858950D+00 -1.1950774138683D+00
    34  3.3000000000000D-01  1.3955957052692D+00 -1.1254317324723D+00
    35  3.4000000000000D-01  1.4141014237436D+00 -1.0490042612946D+00
    36  3.5000000000000D-01  1.4307393267943D+00 -9.6613918091091D-01
    37  3.6000000000000D-01  1.4454871542396D+00 -8.7723163983993D-01
    38  3.7000000000000D-01  1.4583250106487D+00 -7.8272654967515D-01
    39  3.8000000000000D-01  1.4692354913910D+00 -6.8311682791910D-01
    40  3.9000000000000D-01  1.4782038238516D+00 -5.7894108314364D-01
    41  4.0000000000000D-01  1.4852180229852D+00 -4.7078074441608D-01
    42  4.1000000000000D-01  1.4902690600184D+00 -3.5925664445903D-01
    43  4.2000000000000D-01  1.4933510427570D+00 -2.4502507364937D-01
    44  4.3000000000000D-01  1.4944614056031D+00 -1.2877332960377D-01
    45  4.4000000000000D-01  1.4936011070552D+00 -1.1214794632836D-02
    46  4.5000000000000D-01  1.4907748321474D+00  1.0691641933389D-01
    47  4.6000000000000D-01  1.4859911969952D+00  2.2487121175587D-01
    48  4.7000000000000D-01  1.4792629523562D+00  3.4189156726387D-01
    49  4.8000000000000D-01  1.4706071828925D+00  4.5721690303349D-01
    50  4.9000000000000D-01  1.4600454986384D+00  5.7009062517441D-01
    51  5.0000000000000D-01  1.4476042150409D+00  6.7976682489630D-01
    52  5.1000000000000D-01  1.4333145178548D+00  7.8551704135545D-01
    53  5.2000000000000D-01  1.4172126091357D+00  8.8663701511355D-01
    54  5.3000000000000D-01  1.3993398305981D+00  9.8245335411424D-01
    55  5.4000000000000D-01  1.3797427606786D+00  1.0723300330502D+00
    56  5.5000000000000D-01  1.3584732817808D+00  1.1556746470009D+00
    57  5.6000000000000D-01  1.3355886143697D+00  1.2319443412780D+00
    58  5.7000000000000D-01  1.3111513148343D+00  1.3006513415520D+00
    59  5.8000000000000D-01  1.2852292343398D+00  1.3613680115190D+00
    60  5.9000000000000D-01  1.2578954362542D+00  1.4137313696087D+00
    61  6.0000000000000D-01  1.2292280701393D+00  1.4574470014643D+00
    62  6.1000000000000D-01  1.1993102007563D+00  1.4922923111419D+00
    63  6.2000000000000D-01  1.1682295910286D+00  1.5181190610336D+00
    64  6.3000000000000D-01  1.1360784384449D+00  1.5348551584547D+00
    65  6.4000000000000D-01  1.1029530649417D+00  1.5425056554276D+00
    66  6.5000000000000D-01  1.0689535608950D+00  1.5411529374348D+00
    67  6.6000000000000D-01  1.0341833844531D+00  1.5309560866713D+00
    68  6.7000000000000D-01  9.9874891804824D-01  1.5121494154134D+00
    69  6.8000000000000D-01  9.6275898453550D-01  1.4850401754899D+00
    70  6.9000000000000D-01  9.2632432600865D-01  1.4500054603234D+00
    71  7.0000000000000D-01  8.8955704892132D-01  1.4074883264356D+00
    72  7.1000000000000D-01  8.5257003969965D-01  1.3579931715509D+00
    73  7.2000000000000D-01  8.1547635555322D-01  1.3020804163942D+00
    74  7.3000000000000D-01  7.7838859567005D-01  1.2403605467432D+00
    75  7.4000000000000D-01  7.4141825840822D-01  1.1734875811620D+00
    76  7.5000000000000D-01  7.0467509046700D-01  1.1021520379858D+00
    77  7.6000000000000D-01  6.6826643432545D-01  1.0270734824157D+00
    78  7.7000000000000D-01  6.3229658047037D-01  9.4899274087614D-01
    79  7.8000000000000D-01  5.9686613109487D-01  8.6866387505791D-01
    80  7.9000000000000D-01  5.6207138202644D-01  7.8684601212781D-01
    81  8.0000000000000D-01  5.2800372963902D-01  7.0429513044498D-01
    82  8.1000000000000D-01  4.9474910941299D-01  6.2175590167994D-01
    83  8.2000000000000D-01  4.6238747262999D-01  5.3995369046227D-01
    84  8.3000000000000D-01  4.3099230742614D-01  4.5958681156078D-01
    85  8.4000000000000D-01  4.0063021007874D-01  3.8131914212510D-01
    86  8.5000000000000D-01  3.7136051197016D-01  3.0577318270551D-01
    87  8.6000000000000D-01  3.4323496716265D-01  2.3352365565519D-01
    88  8.7000000000000D-01  3.1629750493381D-01  1.6509172315960D-01
    89  8.8000000000000D-01  2.9058405096972D-01  1.0093989960514D-01
    90  8.9000000000000D-01  2.6612242020013D-01  4.1467724383693D-02
    91  9.0000000000000D-01  2.4293228349313D-01 -1.2991748361373D-02
    92  9.1000000000000D-01  2.2102520961666D-01 -6.2174596987154D-02
    93  9.2000000000000D-01  2.0040478302906D-01 -1.0588778170302D-01
    94  9.3000000000000D-01  1.8106679719172D-01 -1.4400997285720D-01
    95  9.4000000000000D-01  1.6299952221440D-01 -1.7649144713953D-01
    96  9.5000000000000D-01  1.4618404475985D-01 -2.0335305306595D-01
    97  9.6000000000000D-01  1.3059467725572D-01 -2.2468425962855D-01
    98  9.7000000000000D-01  1.1619943261081D-01 -2.4064031432524D-01
    99  9.8000000000000D-01  1.0296055981365D-01 -2.5143854883586D-01
   100  9.9000000000000D-01  9.0835134999481D-02 -2.5735388247437D-01
   101  1.0000000000000D+00  7.9775701859083D-02 -2.5871358443194D-01
   102  1.0100000000000D+00  6.9730954595602D-02 -2.5589136621458D-01
   103  1.0200000000000D+00  6.0646456049607D-02 -2.4930088504555D-01
   104  1.0300000000000D+00  5.2465383102646D-02 -2.3938874742355D-01
   105  1.0400000000000D+00  4.5129291063775D-02 -2.2662710902084D-01
   106  1.0500000000000D+00  3.8578888412791D-02 -2.1150597314221D-01
   107  1.0600000000000D+00  3.2754813055228D-02 -1.9452529451997D-01
   108  1.0700000000000D+00  2.7598401134973D-02 -1.7618699817334D-01
   109  1.0800000000000D+00  2.3052439442736D-02 -1.5698702470324D-01
   110  1.0900000000000D+00  1.9061892568276D-02 -1.3740751332629D-01
   111  1.1000000000000D+00  1.5574596122332D-02 -1.1790923287014D-01
   112  1.1100000000000D+00  1.2541907712986D-02 -9.8924367524527D-02
   113  1.1200000000000D+00  9.9193077401259D-03 -8.0849760095623D-02
   114  1.1300000000000D+00  7.6669426800768D-03 -6.4040708538335D-02
   115  1.1400000000000D+00  5.7501039437804D-03 -4.8805406757055D-02
   116  1.1500000000000D+00  4.1396363201929D-03 -3.5400109353733D-02
   117  1.1600000000000D+00  2.8122706288187D-03 -2.4025092307608D-02
   118  1.1700000000000D+00  1.7515127093479D-03 -1.4825932989401D-02
   119  1.1800000000000D+00  9.4316097423527D-04 -7.8578852386726D-03
   120  1.1900000000000D+00  3.8651458025886D-04 -3.1651024101296D-03
   121  1.2000000000000D+00  1.0194472071667D-04 -8.4305193004117D-04
   122  1.2100000000000D+00  1.0776217008634D-05 -1.1700371141692D-04
   123  1.2200000000000D+00 -3.8541102064904D-07  1.0008584479178D-08
   124  1.2300000000000D+00  1.1608261216902D-06 -5.5436087271866D-06
   125  1.2400000000000D+00 -5.1265617559554D-08 -2.7099544258191D-07
   126  1.2500000000000D+00 -1.3249282248879D-08  1.9856173605328D-08
   127  1.2600000000000D+00 -7.1938393433835D-08  6.6363057995638D-07
   128  1.2700000000000D+00  0.0000000000000D+00  0.0000000000000D+00
   129  1.2800000000000D+00  0.0000000000000D+00  0.0000000000000D+00
   130  1.2900000000000D+00  0.0000000000000D+00  0.0000000000000D+00
   131  1.3000000000000D+00  0.0000000000000D+00  0.0000000000000D+00
   132  1.3100000000000D+00  0.0000000000000D+00  0.0000000000000D+00
   133  1.3200000000000D+00  0.0000000000000D+00  0.0000000000000D+00
   134  1.3300000000000D+00  0.0000000000000D+00  0.0000000000000D+00
   135  1.3400000000000D+00  0.0000000000000D+00  0.0000000000000D+00
   136  1.3500000000000D+00  0.0000000000000D+00  0.0000000000000D+00
   137  1.3600000000000D+00  0.0000000000000D+00  0.0000000000000D+00
   138  1.3700000000000D+00  0.0000000000000D+00  0.0000000000000D+00
   139  1.3800000000000D+00  0.0000000000000D+00  0.0000000000000D+00
   140  1.3900000000000D+00  0.0000000000000D+00  0.0000000000000D+00
   141  1.4000000000000D+00  0.0000000000000D+00  0.0000000000000D+00
   142  1.4100000000000D+00  0.0000000000000D+00  0.0000000000000D+00
   143  1.4200000000000D+00  0.0000000000000D+00  0.0000000000000D+00
   144  1.4300000000000D+00  0.0000000000000D+00  0.0000000000000D+00
   145  1.4400000000000D+00  0.0000000000000D+00  0.0000000000000D+00
   146  1.4500000000000D+00  0.0000000000000D+00  0.0000000000000D+00
   147  1.4600000000000D+00  0.0000000000000D+00  0.0000000000000D+00
   148  1.4700000000000D+00  0.0000000000000D+00  0.0000000000000D+00
   149  1.4800000000000D+00  0.0000000000000D+00  0.0000000000000D+00
   150  1.4900000000000D+00  0.0000000000000D+00  0.0000000000000D+00
   151  1.5000000000000D+00  0.0000000000000D+00  0.0000000000000D+00
   152  1.5100000000000D+00  0.0000000000000D+00  0.0000000000000D+00
   153  1.5200000000000D+00  0.0000000000000D+00  0.0000000000000D+00
   154  1.5300000000000D+00  0.0000000000000D+00  0.0000000000000D+00
   155  1.5400000000000D+00  0.0000000000000D+00  0.0000000000000D+00
   156  1.5500000000000D+00  0.0000000000000D+00  0.0000000000000D+00
   157  1.5600000000000D+00  0.0000000000000D+00  0.0000000000000D+00
   158  1.5700000000000D+00  0.0000000000000D+00  0.0000000000000D+00
   159  1.5800000000000D+00  0.0000000000000D+00  0.0000000000000D+00
   160  1.5900000000000D+00  0.0000000000000D+00  0.0000000000000D+00
   161  1.6000000000000D+00  0.0000000000000D+00  0.0000000000000D+00
   162  1.6100000000000D+00  0.0000000000000D+00  0.0000000000000D+00
   163  1.6200000000000D+00  0.0000000000000D+00  0.0000000000000D+00
   164  1.6300000000000D+00  0.0000000000000D+00  0.0000000000000D+00
   165  1.6400000000000D+00  0.0000000000000D+00  0.0000000000000D+00
   166  1.6500000000000D+00  0.0000000000000D+00  0.0000000000000D+00
   167  1.6600000000000D+00  0.0000000000000D+00  0.0000000000000D+00
   168  1.6700000000000D+00  0.0000000000000D+00  0.0000000000000D+00
   169  1.6800000000000D+00  0.0000000000000D+00  0.0000000000000D+00
   170  1.6900000000000D+00  0.0000000000000D+00  0.0000000000000D+00
   171  1.7000000000000D+00  0.0000000000000D+00  0.0000000000000D+00
   172  1.7100000000000D+00  0.0000000000000D+00  0.0000000000000D+00
   173  1.7200000000000D+00  0.0000000000000D+00  0.0000000000000D+00
   174  1.7300000000000D+00  0.0000000000000D+00  0.0000000000000D+00
   175  1.7400000000000D+00  0.0000000000000D+00  0.0000000000000D+00
   176  1.7500000000000D+00  0.0000000000000D+00  0.0000000000000D+00
   177  1.7600000000000D+00  0.0000000000000D+00  0.0000000000000D+00
   178  1.7700000000000D+00  0.0000000000000D+00  0.0000000000000D+00
   179  1.7800000000000D+00  0.0000000000000D+00  0.0000000000000D+00
   180  1.7900000000000D+00  0.0000000000000D+00  0.0000000000000D+00
   181  1.8000000000000D+00  0.0000000000000D+00  0.0000000000000D+00
   182  1.8100000000000D+00  0.0000000000000D+00  0.0000000000000D+00
   183  1.8200000000000D+00  0.0000000000000D+00  0.0000000000000D+00
   184  1.8300000000000D+00  0.0000000000000D+00  0.0000000000000D+00
   185  1.8400000000000D+00  0.0000000000000D+00  0.0000000000000D+00
   186  1.8500000000000D+00  0.0000000000000D+00  0.0000000000000D+00
   187  1.8600000000000D+00  0.0000000000000D+00  0.0000000000000D+00
   188  1.8700000000000D+00  0.0000000000000D+00  0.0000000000000D+00
   189  1.8800000000000D+00  0.0000000000000D+00  0.0000000000000D+00
   190  1.8900000000000D+00  0.0000000000000D+00  0.0000000000000D+00
   191  1.9000000000000D+00  0.0000000000000D+00  0.0000000000000D+00
   192  1.9100000000000D+00  0.0000000000000D+00  0.0000000000000D+00
   193  1.9200000000000D+00  0.0000000000000D+00  0.0000000000000D+00
   194  1.9300000000000D+00  0.0000000000000D+00  0.0000000000000D+00
   195  1.9400000000000D+00  0.0000000000000D+00  0.0000000000000D+00
   196  1.9500000000000D+00  0.0000000000000D+00  0.0000000000000D+00
   197  1.9600000000000D+00  0.0000000000000D+00  0.0000000000000D+00
   198  1.9700000000000D+00  0.0000000000000D+00  0.0000000000000D+00
   199  1.9800000000000D+00  0.0000000000000D+00  0.0000000000000D+00
   200  1.9900000000000D+00  0.0000000000000D+00  0.0000000000000D+00
   201  2.0000000000000D+00  0.0000000000000D+00  0.0000000000000D+00
   202  2.0100000000000D+00  0.0000000000000D+00  0.0000000000000D+00
   203  2.0200000000000D+00  0.0000000000000D+00  0.0000000000000D+00
   204  2.0300000000000D+00  0.0000000000000D+00  0.0000000000000D+00
   205  2.0400000000000D+00  0.0000000000000D+00  0.0000000000000D+00
   206  2.0500000000000D+00  0.0000000000000D+00  0.0000000000000D+00
   207  2.0600000000000D+00  0.0000000000000D+00  0.0000000000000D+00
   208  2.0700000000000D+00  0.0000000000000D+00  0.0000000000000D+00
   209  2.0800000000000D+00  0.0000000000000D+00  0.0000000000000D+00
   210  2.0900000000000D+00  0.0000000000000D+00  0.0000000000000D+00
   211  2.1000000000000D+00  0.0000000000000D+00  0.0000000000000D+00
   212  2.1100000000000D+00  0.0000000000000D+00  0.0000000000000D+00
   213  2.1200000000000D+00  0.0000000000000D+00  0.0000000000000D+00
   214  2.1300000000000D+00  0.0000000000000D+00  0.0000000000000D+00
   215  2.1400000000000D+00  0.0000000000000D+00  0.0000000000000D+00
   216  2.1500000000000D+00  0.0000000000000D+00  0.0000000000000D+00
   217  2.1600000000000D+00  0.0000000000000D+00  0.0000000000000D+00
   218  2.1700000000000D+00  0.0000000000000D+00  0.0000000000000D+00
   219  2.1800000000000D+00  0.0000000000000D+00  0.0000000000000D+00
   220  2.1900000000000D+00  0.0000000000000D+00  0.0000000000000D+00
   221  2.2000000000000D+00  0.0000000000000D+00  0.0000000000000D+00
   222  2.2100000000000D+00  0.0000000000000D+00  0.0000000000000D+00
   223  2.2200000000000D+00  0.0000000000000D+00  0.0000000000000D+00
   224  2.2300000000000D+00  0.0000000000000D+00  0.0000000000000D+00
   225  2.2400000000000D+00  0.0000000000000D+00  0.0000000000000D+00
   226  2.2500000000000D+00  0.0000000000000D+00  0.0000000000000D+00
   227  2.2600000000000D+00  0.0000000000000D+00  0.0000000000000D+00
   228  2.2700000000000D+00  0.0000000000000D+00  0.0000000000000D+00
   229  2.2800000000000D+00  0.0000000000000D+00  0.0000000000000D+00
   230  2.2900000000000D+00  0.0000000000000D+00  0.0000000000000D+00
   231  2.3000000000000D+00  0.0000000000000D+00  0.0000000000000D+00
   232  2.3100000000000D+00  0.0000000000000D+00  0.0000000000000D+00
   233  2.3200000000000D+00  0.0000000000000D+00  0.0000000000000D+00
   234  2.3300000000000D+00  0.0000000000000D+00  0.0000000000000D+00
   235  2.3400000000000D+00  0.0000000000000D+00  0.0000000000000D+00
   236  2.3500000000000D+00  0.0000000000000D+00  0.0000000000000D+00
   237  2.3600000000000D+00  0.0000000000000D+00  0.0000000000000D+00
   238  2.3700000000000D+00  0.0000000000000D+00  0.0000000000000D+00
   239  2.3800000000000D+00  0.0000000000000D+00  0.0000000000000D+00
   240  2.3900000000000D+00  0.0000000000000D+00  0.0000000000000D+00
   241  2.4000000000000D+00  0.0000000000000D+00  0.0000000000000D+00
   242  2.4100000000000D+00  0.0000000000000D+00  0.0000000000000D+00
   243  2.4200000000000D+00  0.0000000000000D+00  0.0000000000000D+00
   244  2.4300000000000D+00  0.0000000000000D+00  0.0000000000000D+00
   245  2.4400000000000D+00  0.0000000000000D+00  0.0000000000000D+00
   246  2.4500000000000D+00  0.0000000000000D+00  0.0000000000000D+00
   247  2.4600000000000D+00  0.0000000000000D+00  0.0000000000000D+00
   248  2.4700000000000D+00  0.0000000000000D+00  0.0000000000000D+00
   249  2.4800000000000D+00  0.0000000000000D+00  0.0000000000000D+00
   250  2.4900000000000D+00  0.0000000000000D+00  0.0000000000000D+00
   251  2.5000000000000D+00  0.0000000000000D+00  0.0000000000000D+00
   252  2.5100000000000D+00  0.0000000000000D+00  0.0000000000000D+00
   253  2.5200000000000D+00  0.0000000000000D+00  0.0000000000000D+00
   254  2.5300000000000D+00  0.0000000000000D+00  0.0000000000000D+00
   255  2.5400000000000D+00  0.0000000000000D+00  0.0000000000000D+00
   256  2.5500000000000D+00  0.0000000000000D+00  0.0000000000000D+00
   257  2.5600000000000D+00  0.0000000000000D+00  0.0000000000000D+00
   258  2.5700000000000D+00  0.0000000000000D+00  0.0000000000000D+00
   259  2.5800000000000D+00  0.0000000000000D+00  0.0000000000000D+00
   260  2.5900000000000D+00  0.0000000000000D+00  0.0000000000000D+00
   261  2.6000000000000D+00  0.0000000000000D+00  0.0000000000000D+00
   262  2.6100000000000D+00  0.0000000000000D+00  0.0000000000000D+00
   263  2.6200000000000D+00  0.0000000000000D+00  0.0000000000000D+00
   264  2.6300000000000D+00  0.0000000000000D+00  0.0000000000000D+00
   265  2.6400000000000D+00  0.0000000000000D+00  0.0000000000000D+00
   266  2.6500000000000D+00  0.0000000000000D+00  0.0000000000000D+00
   267  2.6600000000000D+00  0.0000000000000D+00  0.0000000000000D+00
   268  2.6700000000000D+00  0.0000000000000D+00  0.0000000000000D+00
   269  2.6800000000000D+00  0.0000000000000D+00  0.0000000000000D+00
   270  2.6900000000000D+00  0.0000000000000D+00  0.0000000000000D+00
   271  2.7000000000000D+00  0.0000000000000D+00  0.0000000000000D+00
   272  2.7100000000000D+00  0.0000000000000D+00  0.0000000000000D+00
   273  2.7200000000000D+00  0.0000000000000D+00  0.0000000000000D+00
   274  2.7300000000000D+00  0.0000000000000D+00  0.0000000000000D+00
   275  2.7400000000000D+00  0.0000000000000D+00  0.0000000000000D+00
   276  2.7500000000000D+00  0.0000000000000D+00  0.0000000000000D+00
   277  2.7600000000000D+00  0.0000000000000D+00  0.0000000000000D+00
   278  2.7700000000000D+00  0.0000000000000D+00  0.0000000000000D+00
   279  2.7800000000000D+00  0.0000000000000D+00  0.0000000000000D+00
   280  2.7900000000000D+00  0.0000000000000D+00  0.0000000000000D+00
   281  2.8000000000000D+00  0.0000000000000D+00  0.0000000000000D+00
   282  2.8100000000000D+00  0.0000000000000D+00  0.0000000000000D+00
   283  2.8200000000000D+00  0.0000000000000D+00  0.0000000000000D+00
   284  2.8300000000000D+00  0.0000000000000D+00  0.0000000000000D+00
   285  2.8400000000000D+00  0.0000000000000D+00  0.0000000000000D+00
   286  2.8500000000000D+00  0.0000000000000D+00  0.0000000000000D+00
   287  2.8600000000000D+00  0.0000000000000D+00  0.0000000000000D+00
   288  2.8700000000000D+00  0.0000000000000D+00  0.0000000000000D+00
   289  2.8800000000000D+00  0.0000000000000D+00  0.0000000000000D+00
   290  2.8900000000000D+00  0.0000000000000D+00  0.0000000000000D+00
   291  2.9000000000000D+00  0.0000000000000D+00  0.0000000000000D+00
   292  2.9100000000000D+00  0.0000000000000D+00  0.0000000000000D+00
   293  2.9200000000000D+00  0.0000000000000D+00  0.0000000000000D+00
   294  2.9300000000000D+00  0.0000000000000D+00  0.0000000000000D+00
   295  2.9400000000000D+00  0.0000000000000D+00  0.0000000000000D+00
   296  2.9500000000000D+00  0.0000000000000D+00  0.0000000000000D+00
   297  2.9600000000000D+00  0.0000000000000D+00  0.0000000000000D+00
   298  2.9700000000000D+00  0.0000000000000D+00  0.0000000000000D+00
   299  2.9800000000000D+00  0.0000000000000D+00  0.0000000000000D+00
   300  2.9900000000000D+00  0.0000000000000D+00  0.0000000000000D+00
   301  3.0000000000000D+00  0.0000000000000D+00  0.0000000000000D+00
   302  3.0100000000000D+00  0.0000000000000D+00  0.0000000000000D+00
   303  3.0200000000000D+00  0.0000000000000D+00  0.0000000000000D+00
   304  3.0300000000000D+00  0.0000000000000D+00  0.0000000000000D+00
   305  3.0400000000000D+00  0.0000000000000D+00  0.0000000000000D+00
   306  3.0500000000000D+00  0.0000000000000D+00  0.0000000000000D+00
   307  3.0600000000000D+00  0.0000000000000D+00  0.0000000000000D+00
   308  3.0700000000000D+00  0.0000000000000D+00  0.0000000000000D+00
   309  3.0800000000000D+00  0.0000000000000D+00  0.0000000000000D+00
   310  3.0900000000000D+00  0.0000000000000D+00  0.0000000000000D+00
   311  3.1000000000000D+00  0.0000000000000D+00  0.0000000000000D+00
   312  3.1100000000000D+00  0.0000000000000D+00  0.0000000000000D+00
   313  3.1200000000000D+00  0.0000000000000D+00  0.0000000000000D+00
   314  3.1300000000000D+00  0.0000000000000D+00  0.0000000000000D+00
   315  3.1400000000000D+00  0.0000000000000D+00  0.0000000000000D+00
   316  3.1500000000000D+00  0.0000000000000D+00  0.0000000000000D+00
   317  3.1600000000000D+00  0.0000000000000D+00  0.0000000000000D+00
   318  3.1700000000000D+00  0.0000000000000D+00  0.0000000000000D+00
   319  3.1800000000000D+00  0.0000000000000D+00  0.0000000000000D+00
   320  3.1900000000000D+00  0.0000000000000D+00  0.0000000000000D+00
   321  3.2000000000000D+00  0.0000000000000D+00  0.0000000000000D+00
   322  3.2100000000000D+00  0.0000000000000D+00  0.0000000000000D+00
   323  3.2200000000000D+00  0.0000000000000D+00  0.0000000000000D+00
   324  3.2300000000000D+00  0.0000000000000D+00  0.0000000000000D+00
   325  3.2400000000000D+00  0.0000000000000D+00  0.0000000000000D+00
   326  3.2500000000000D+00  0.0000000000000D+00  0.0000000000000D+00
   327  3.2600000000000D+00  0.0000000000000D+00  0.0000000000000D+00
   328  3.2700000000000D+00  0.0000000000000D+00  0.0000000000000D+00
   329  3.2800000000000D+00  0.0000000000000D+00  0.0000000000000D+00
   330  3.2900000000000D+00  0.0000000000000D+00  0.0000000000000D+00
   331  3.3000000000000D+00  0.0000000000000D+00  0.0000000000000D+00
   332  3.3100000000000D+00  0.0000000000000D+00  0.0000000000000D+00
   333  3.3200000000000D+00  0.0000000000000D+00  0.0000000000000D+00
   334  3.3300000000000D+00  0.0000000000000D+00  0.0000000000000D+00
   335  3.3400000000000D+00  0.0000000000000D+00  0.0000000000000D+00
   336  3.3500000000000D+00  0.0000000000000D+00  0.0000000000000D+00
   337  3.3600000000000D+00  0.0000000000000D+00  0.0000000000000D+00
   338  3.3700000000000D+00  0.0000000000000D+00  0.0000000000000D+00
   339  3.3800000000000D+00  0.0000000000000D+00  0.0000000000000D+00
   340  3.3900000000000D+00  0.0000000000000D+00  0.0000000000000D+00
   341  3.4000000000000D+00  0.0000000000000D+00  0.0000000000000D+00
   342  3.4100000000000D+00  0.0000000000000D+00  0.0000000000000D+00
   343  3.4200000000000D+00  0.0000000000000D+00  0.0000000000000D+00
   344  3.4300000000000D+00  0.0000000000000D+00  0.0000000000000D+00
   345  3.4400000000000D+00  0.0000000000000D+00  0.0000000000000D+00
   346  3.4500000000000D+00  0.0000000000000D+00  0.0000000000000D+00
   347  3.4600000000000D+00  0.0000000000000D+00  0.0000000000000D+00
   348  3.4700000000000D+00  0.0000000000000D+00  0.0000000000000D+00
   349  3.4800000000000D+00  0.0000000000000D+00  0.0000000000000D+00
   350  3.4900000000000D+00  0.0000000000000D+00  0.0000000000000D+00
   351  3.5000000000000D+00  0.0000000000000D+00  0.0000000000000D+00
   352  3.5100000000000D+00  0.0000000000000D+00  0.0000000000000D+00
   353  3.5200000000000D+00  0.0000000000000D+00  0.0000000000000D+00
   354  3.5300000000000D+00  0.0000000000000D+00  0.0000000000000D+00
   355  3.5400000000000D+00  0.0000000000000D+00  0.0000000000000D+00
   356  3.5500000000000D+00  0.0000000000000D+00  0.0000000000000D+00
   357  3.5600000000000D+00  0.0000000000000D+00  0.0000000000000D+00
   358  3.5700000000000D+00  0.0000000000000D+00  0.0000000000000D+00
   359  3.5800000000000D+00  0.0000000000000D+00  0.0000000000000D+00
   360  3.5900000000000D+00  0.0000000000000D+00  0.0000000000000D+00
   361  3.6000000000000D+00  0.0000000000000D+00  0.0000000000000D+00
   362  3.6100000000000D+00  0.0000000000000D+00  0.0000000000000D+00
   363  3.6200000000000D+00  0.0000000000000D+00  0.0000000000000D+00
   364  3.6300000000000D+00  0.0000000000000D+00  0.0000000000000D+00
   365  3.6400000000000D+00  0.0000000000000D+00  0.0000000000000D+00
   366  3.6500000000000D+00  0.0000000000000D+00  0.0000000000000D+00
   367  3.6600000000000D+00  0.0000000000000D+00  0.0000000000000D+00
   368  3.6700000000000D+00  0.0000000000000D+00  0.0000000000000D+00
   369  3.6800000000000D+00  0.0000000000000D+00  0.0000000000000D+00
   370  3.6900000000000D+00  0.0000000000000D+00  0.0000000000000D+00
   371  3.7000000000000D+00  0.0000000000000D+00  0.0000000000000D+00
   372  3.7100000000000D+00  0.0000000000000D+00  0.0000000000000D+00
   373  3.7200000000000D+00  0.0000000000000D+00  0.0000000000000D+00
   374  3.7300000000000D+00  0.0000000000000D+00  0.0000000000000D+00
   375  3.7400000000000D+00  0.0000000000000D+00  0.0000000000000D+00
   376  3.7500000000000D+00  0.0000000000000D+00  0.0000000000000D+00
   377  3.7600000000000D+00  0.0000000000000D+00  0.0000000000000D+00
   378  3.7700000000000D+00  0.0000000000000D+00  0.0000000000000D+00
   379  3.7800000000000D+00  0.0000000000000D+00  0.0000000000000D+00
   380  3.7900000000000D+00  0.0000000000000D+00  0.0000000000000D+00
   381  3.8000000000000D+00  0.0000000000000D+00  0.0000000000000D+00
   382  3.8100000000000D+00  0.0000000000000D+00  0.0000000000000D+00
   383  3.8200000000000D+00  0.0000000000000D+00  0.0000000000000D+00
   384  3.8300000000000D+00  0.0000000000000D+00  0.0000000000000D+00
   385  3.8400000000000D+00  0.0000000000000D+00  0.0000000000000D+00
   386  3.8500000000000D+00  0.0000000000000D+00  0.0000000000000D+00
   387  3.8600000000000D+00  0.0000000000000D+00  0.0000000000000D+00
   388  3.8700000000000D+00  0.0000000000000D+00  0.0000000000000D+00
   389  3.8800000000000D+00  0.0000000000000D+00  0.0000000000000D+00
   390  3.8900000000000D+00  0.0000000000000D+00  0.0000000000000D+00
   391  3.9000000000000D+00  0.0000000000000D+00  0.0000000000000D+00
   392  3.9100000000000D+00  0.0000000000000D+00  0.0000000000000D+00
   393  3.9200000000000D+00  0.0000000000000D+00  0.0000000000000D+00
   394  3.9300000000000D+00  0.0000000000000D+00  0.0000000000000D+00
   395  3.9400000000000D+00  0.0000000000000D+00  0.0000000000000D+00
   396  3.9500000000000D+00  0.0000000000000D+00  0.0000000000000D+00
   397  3.9600000000000D+00  0.0000000000000D+00  0.0000000000000D+00
   398  3.9700000000000D+00  0.0000000000000D+00  0.0000000000000D+00
   399  3.9800000000000D+00  0.0000000000000D+00  0.0000000000000D+00
   400  3.9900000000000D+00  0.0000000000000D+00  0.0000000000000D+00
   401  4.0000000000000D+00  0.0000000000000D+00  0.0000000000000D+00
   402  4.0100000000000D+00  0.0000000000000D+00  0.0000000000000D+00
   403  4.0200000000000D+00  0.0000000000000D+00  0.0000000000000D+00
   404  4.0300000000000D+00  0.0000000000000D+00  0.0000000000000D+00
   405  4.0400000000000D+00  0.0000000000000D+00  0.0000000000000D+00
   406  4.0500000000000D+00  0.0000000000000D+00  0.0000000000000D+00
   407  4.0600000000000D+00  0.0000000000000D+00  0.0000000000000D+00
   408  4.0700000000000D+00  0.0000000000000D+00  0.0000000000000D+00
   409  4.0800000000000D+00  0.0000000000000D+00  0.0000000000000D+00
   410  4.0900000000000D+00  0.0000000000000D+00  0.0000000000000D+00
   411  4.1000000000000D+00  0.0000000000000D+00  0.0000000000000D+00
   412  4.1100000000000D+00  0.0000000000000D+00  0.0000000000000D+00
   413  4.1200000000000D+00  0.0000000000000D+00  0.0000000000000D+00
   414  4.1300000000000D+00  0.0000000000000D+00  0.0000000000000D+00
   415  4.1400000000000D+00  0.0000000000000D+00  0.0000000000000D+00
   416  4.1500000000000D+00  0.0000000000000D+00  0.0000000000000D+00
   417  4.1600000000000D+00  0.0000000000000D+00  0.0000000000000D+00
   418  4.1700000000000D+00  0.0000000000000D+00  0.0000000000000D+00
   419  4.1800000000000D+00  0.0000000000000D+00  0.0000000000000D+00
   420  4.1900000000000D+00  0.0000000000000D+00  0.0000000000000D+00
   421  4.2000000000000D+00  0.0000000000000D+00  0.0000000000000D+00
   422  4.2100000000000D+00  0.0000000000000D+00  0.0000000000000D+00