Br    ONCVPSP-3.3.0  r_core=   1.81012   1.51356   1.92136
     35.0000      7.0000      220408    zatom,zion,pspd
     8       2   2     4   600     0    pspcod,pspxc,lmax,lloc,mmax,r2well
  5.99000000  0.00000000  0.00000000    rchrg fchrg qchrg
     2     2     2     0     0    nproj
     1     1           extension_switch
   0                         8.5671265011074D+00  9.1619076197480D-01
     1  0.0000000000000D+00 -1.9472923273867D-10  3.8302971905324D-10
     2  1.0000000000000D-02  3.8191790872099D-02 -1.6879937744834D-02
     3  2.0000000000000D-02  7.6344444503006D-02 -3.3702670834012D-02
     4  3.0000000000000D-02  1.1441907304166D-01 -5.0411535904068D-02
     5  4.0000000000000D-02  1.5237728370977D-01 -6.6950944550348D-02
     6  5.0000000000000D-02  1.9018141711971D-01 -8.3266901841197D-02
     7  6.0000000000000D-02  2.2779477467027D-01 -9.9307502349104D-02
     8  7.0000000000000D-02  2.6518183161118D-01 -1.1502339665962D-01
     9  8.0000000000000D-02  3.0230843256196D-01 -1.3036822170185D-01
    10  9.0000000000000D-02  3.3914196650944D-01 -1.4529898871459D-01
    11  1.0000000000000D-01  3.7565151858849D-01 -1.5977642321324D-01
    12  1.1000000000000D-01  4.1180799626737D-01 -1.7376525194928D-01
    13  1.2000000000000D-01  4.4758422791083D-01 -1.8723443254665D-01
    14  1.3000000000000D-01  4.8295503207351D-01 -2.0015732225199D-01
    15  1.4000000000000D-01  5.1789725628140D-01 -2.1251178303657D-01
    16  1.5000000000000D-01  5.5238978448211D-01 -2.2428022112934D-01
    17  1.6000000000000D-01  5.8641351278309D-01 -2.3544955993154D-01
    18  1.7000000000000D-01  6.1995129354200D-01 -2.4601114615270D-01
    19  1.8000000000000D-01  6.5298784832260D-01 -2.5596058990596D-01
    20  1.9000000000000D-01  6.8550965067444D-01 -2.6529754039540D-01
    21  2.0000000000000D-01  7.1750478013138D-01 -2.7402539970856D-01
    22  2.1000000000000D-01  7.4896274924578D-01 -2.8215097808318D-01
    23  2.2000000000000D-01  7.7987430587746D-01 -2.8968409483699D-01
    24  2.3000000000000D-01  8.1023121333288D-01 -2.9663712992370D-01
    25  2.4000000000000D-01  8.4002601129700D-01 -3.0302453179605D-01
    26  2.5000000000000D-01  8.6925176081159D-01 -3.0886228791052D-01
    27  2.6000000000000D-01  8.9790177682635D-01 -3.1416736478787D-01
    28  2.7000000000000D-01  9.2596935207915D-01 -3.1895712504256D-01
    29  2.8000000000000D-01  9.5344747624502D-01 -3.2324872920533D-01
    30  2.9000000000000D-01  9.8032855442856D-01 -3.2705853048052D-01
    31  3.0000000000000D-01  1.0066041291579D+00 -3.3040147080009D-01
    32  3.1000000000000D-01  1.0322646100706D+00 -3.3329048665375D-01
    33  3.2000000000000D-01  1.0572990154581D+00 -3.3573593318939D-01
    34  3.3000000000000D-01  1.0816947297631D+00 -3.3774503498764D-01
    35  3.4000000000000D-01  1.1054372809912D+00 -3.3932137171904D-01
    36  3.5000000000000D-01  1.1285101418226D+00 -3.4046440659394D-01
    37  3.6000000000000D-01  1.1508945579738D+00 -3.4116906511622D-01
    38  3.7000000000000D-01  1.1725694070846D+00 -3.4142537115617D-01
    39  3.8000000000000D-01  1.1935110910791D+00 -3.4121814676968D-01
    40  3.9000000000000D-01  1.2136934645857D+00 -3.4052678151827D-01
    41  4.0000000000000D-01  1.2330878015971D+00 -3.3932507629191D-01
    42  4.1000000000000D-01  1.2516628021186D+00 -3.3758116581466D-01
    43  4.2000000000000D-01  1.2693846400860D+00 -3.3525752312967D-01
    44  4.3000000000000D-01  1.2862170533514D+00 -3.3231104842466D-01
    45  4.4000000000000D-01  1.3021214760327D+00 -3.2869324358328D-01
    46  4.5000000000000D-01  1.3170572130074D+00 -3.2435047284129D-01
    47  4.6000000000000D-01  1.3309816558147D+00 -3.1922430890232D-01
    48  4.7000000000000D-01  1.3438505387122D+00 -3.1325196283632D-01
    49  4.8000000000000D-01  1.3556182331260D+00 -3.0636679505784D-01
    50  4.9000000000000D-01  1.3662380782353D+00 -2.9849890367271D-01
    51  5.0000000000000D-01  1.3756627449592D+00 -2.8957578550130D-01
    52  5.1000000000000D-01  1.3838446301638D+00 -2.7952306414806D-01
    53  5.2000000000000D-01  1.3907362774877D+00 -2.6826527859893D-01
    54  5.3000000000000D-01  1.3962908208048D+00 -2.5572672500470D-01
    55  5.4000000000000D-01  1.4004624460029D+00 -2.4183234355508D-01
    56  5.5000000000000D-01  1.4032068664604D+00 -2.2650864167895D-01
    57  5.6000000000000D-01  1.4044818073630D+00 -2.0968464422659D-01
    58  5.7000000000000D-01  1.4042474938082D+00 -1.9129286080707D-01
    59  5.8000000000000D-01  1.4024671375125D+00 -1.7127026007669D-01
    60  5.9000000000000D-01  1.3991074168576D+00 -1.4955924050589D-01
    61  6.0000000000000D-01  1.3941389449959D+00 -1.2610858699666D-01
    62  6.1000000000000D-01  1.3875367207773D+00 -1.0087440268369D-01
    63  6.2000000000000D-01  1.3792805573608D+00 -7.3821005330591D-02
    64  6.3000000000000D-01  1.3693554835388D+00 -4.4921777929242D-02
    65  6.4000000000000D-01  1.3577521130195D+00 -1.4159963421909D-02
    66  6.5000000000000D-01  1.3444669771897D+00  1.8470606108284D-02
    67  6.6000000000000D-01  1.3295028172086D+00  5.2964854895581D-02
    68  6.7000000000000D-01  1.3128688316618D+00  8.9305892076720D-02
    69  6.8000000000000D-01  1.2945808764275D+00  1.2746453114203D-01
    70  6.9000000000000D-01  1.2746616138726D+00  1.6739890716042D-01
    71  7.0000000000000D-01  1.2531406089975D+00  2.0905419777482D-01
    72  7.1000000000000D-01  1.2300543706757D+00  2.5236245298188D-01
    73  7.2000000000000D-01  1.2054463366943D+00  2.9724253766019D-01
    74  7.3000000000000D-01  1.1793668018712D+00  3.4360018971423D-01
    75  7.4000000000000D-01  1.1518727891099D+00  3.9132819556385D-01
    76  7.5000000000000D-01  1.1230278638442D+00  4.4030668354481D-01
    77  7.6000000000000D-01  1.0929018929104D+00  4.9040353460470D-01
    78  7.7000000000000D-01  1.0615707494656D+00  5.4147490850255D-01
    79  7.8000000000000D-01  1.0291159661343D+00  5.9336588254391D-01
    80  7.9000000000000D-01  9.9562433910818D-01  6.4591119874194D-01
    81  8.0000000000000D-01  9.6118748643609D-01  6.9893611418362D-01
    82  8.1000000000000D-01  9.2590136422613D-01  7.5225734831905D-01
    83  8.2000000000000D-01  8.8986574491801D-01  8.0568411989028D-01
    84  8.3000000000000D-01  8.5318366218336D-01  8.5901926528594D-01
    85  8.4000000000000D-01  8.1596082735814D-01  9.1206042925842D-01
    86  8.5000000000000D-01  7.7830502260533D-01  9.6460131818121D-01
    87  8.6000000000000D-01  7.4032547624407D-01  1.0164330053637D+00
    88  8.7000000000000D-01  7.0213222586007D-01  1.0673452773855D+00
    89  8.8000000000000D-01  6.6383547492920D-01  1.1171280099683D+00
    90  8.9000000000000D-01  6.2554494874120D-01  1.1655725615779D+00
    91  9.0000000000000D-01  5.8736925540221D-01  1.2124731727389D+00
    92  9.1000000000000D-01  5.4941525762399D-01  1.2576283589602D+00
    93  9.2000000000000D-01  5.1178746087468D-01  1.3008422852046D+00
    94  9.3000000000000D-01  4.7458742327314D-01  1.3419261099936D+00
    95  9.4000000000000D-01  4.3791319235821D-01  1.3806992875159D+00
    96  9.5000000000000D-01  4.0185877355917D-01  1.4169908164997D+00
    97  9.6000000000000D-01  3.6651363483603D-01  1.4506404251161D+00
    98  9.7000000000000D-01  3.3196225155631D-01  1.4814996817897D+00
    99  9.8000000000000D-01  2.9828369523450D-01  1.5094330224928D+00
   100  9.9000000000000D-01  2.6555126927126D-01  1.5343186859130D+00
   101  1.0000000000000D+00  2.3383219432519D-01  1.5560495487514D+00
   102  1.0100000000000D+00  2.0318734541203D-01  1.5745338543620D+00
   103  1.0200000000000D+00  1.7367104227399D-01  1.5896958289541D+00
   104  1.0300000000000D+00  1.4533089398975D-01  1.6014761806507D+00
   105  1.0400000000000D+00  1.1820769823907D-01  1.6098324777727D+00
   106  1.0500000000000D+00  9.2335395065709D-02  1.6147394038423D+00
   107  1.0600000000000D+00  6.7741074409066D-02  1.6161888879689D+00
   108  1.0700000000000D+00  4.4445036151696D-02  1.6141901103750D+00
   109  1.0800000000000D+00  2.2460900892112D-02  1.6087693839814D+00
   110  1.0900000000000D+00  1.7957691681001D-03  1.5999699140540D+00
   111  1.1000000000000D+00 -1.7549573591434D-02  1.5878514389432D+00
   112  1.1100000000000D+00 -3.5580409571168D-02  1.5724897560693D+00
   113  1.1200000000000D+00 -5.2307802053220D-02  1.5539761381724D+00
   114  1.1300000000000D+00 -6.7748273769531D-02  1.5324166458502D+00
   115  1.1400000000000D+00 -8.1923454236486D-02  1.5079313430395D+00
   116  1.1500000000000D+00 -9.4859700495033D-02  1.4806534231008D+00
   117  1.1600000000000D+00 -1.0658769579014D-01  1.4507282536296D+00
   118  1.1700000000000D+00 -1.1714203085132D-01  1.4183123487647D+00
   119  1.1800000000000D+00 -1.2656077250719D-01  1.3835722781306D+00
   120  1.1900000000000D+00 -1.3488502436870D-01  1.3466835220711D+00
   121  1.2000000000000D+00 -1.4215848422575D-01  1.3078292829438D+00
   122  1.2100000000000D+00 -1.4842700272560D-01  1.2671992624309D+00
   123  1.2200000000000D+00 -1.5373814774925D-01  1.2249884149355D+00
   124  1.2300000000000D+00 -1.5814077862506D-01  1.1813956870008D+00
   125  1.2400000000000D+00 -1.6168463406621D-01  1.1366227525045D+00
   126  1.2500000000000D+00 -1.6441993755951D-01  1.0908727533302D+00
   127  1.2600000000000D+00 -1.6639702335851D-01  1.0443490546355D+00
   128  1.2700000000000D+00 -1.6766598592032D-01  9.9725402340121D-01
   129  1.2800000000000D+00 -1.6827635550644D-01  9.4978783889620D-01
   130  1.2900000000000D+00 -1.6827680177288D-01  9.0214734248638D-01
   131  1.3000000000000D+00 -1.6771486695732D-01  8.5452493380740D-01
   132  1.3100000000000D+00 -1.6663673012113D-01  8.0710752021337D-01
   133  1.3200000000000D+00 -1.6508700279625D-01  7.6007552462197D-01
   134  1.3300000000000D+00 -1.6310855642447D-01  7.1360195684311D-01
   135  1.3400000000000D+00 -1.6074238160044D-01  6.6785155297230D-01
   136  1.3500000000000D+00 -1.5802747808866D-01  6.2297998541321D-01
   137  1.3600000000000D+00 -1.5500077493457D-01  5.7913314672714D-01
   138  1.3700000000000D+00 -1.5169707916442D-01  5.3644650901674D-01
   139  1.3800000000000D+00 -1.4814905103257D-01  4.9504455909705D-01
   140  1.3900000000000D+00 -1.4438720421195D-01  4.5504031093157D-01
   141  1.4000000000000D+00 -1.4043992805688D-01  4.1653489367336D-01
   142  1.4100000000000D+00 -1.3633352958303D-01  3.7961721464023D-01
   143  1.4200000000000D+00 -1.3209229231937D-01  3.4436369574233D-01
   144  1.4300000000000D+00 -1.2773854891141D-01  3.1083807999048D-01
   145  1.4400000000000D+00 -1.2329276459366D-01  2.7909130640032D-01
   146  1.4500000000000D+00 -1.1877362820007D-01  2.4916144883523D-01
   147  1.4600000000000D+00 -1.1419814777495D-01  2.2107371562479D-01
   148  1.4700000000000D+00 -1.0958174645585D-01  1.9484050067183D-01
   149  1.4800000000000D+00 -1.0493836029176D-01  1.7046150488709D-01
   150  1.4900000000000D+00 -1.0028052553357D-01  1.4792387248090D-01
   151  1.5000000000000D+00 -9.5619494179724D-02  1.2720256079843D-01
   152  1.5100000000000D+00 -9.0965199588016D-02  1.0825999614448D-01
   153  1.5200000000000D+00 -8.6326434543135D-02  9.1046962599991D-02
   154  1.5300000000000D+00 -8.1711249298679D-02  7.5504837499906D-02
   155  1.5400000000000D+00 -7.7127315582958D-02  6.1567539144540D-02
   156  1.5500000000000D+00 -7.2582404453636D-02  4.9164089296514D-02
   157  1.5600000000000D+00 -6.8084498789022D-02  3.8219275126864D-02
   158  1.5700000000000D+00 -6.3641820440039D-02  2.8653885354845D-02
   159  1.5800000000000D+00 -5.9262952516417D-02  2.0385657557939D-02
   160  1.5900000000000D+00 -5.4956879200943D-02  1.3329850583590D-02
   161  1.6000000000000D+00 -5.0733022493752D-02  7.3999242200604D-03
   162  1.6100000000000D+00 -4.6601251550900D-02  2.5081665293338D-03
   163  1.6200000000000D+00 -4.2571870471732D-02 -1.4336948072918D-03
   164  1.6300000000000D+00 -3.8655586323916D-02 -4.5139038581647D-03
   165  1.6400000000000D+00 -3.4863457315238D-02 -6.8201146213831D-03
   166  1.6500000000000D+00 -3.1206823882872D-02 -8.4388565673293D-03
   167  1.6600000000000D+00 -2.7697223700659D-02 -9.4550302043509D-03
   168  1.6700000000000D+00 -2.4346293397088D-02 -9.9514330474710D-03
   169  1.6800000000000D+00 -2.1165658692080D-02 -1.0008317499806D-02
   170  1.6900000000000D+00 -1.8166815863521D-02 -9.7029807094849D-03
   171  1.7000000000000D+00 -1.5361006584946D-02 -9.1093871339601D-03
   172  1.7100000000000D+00 -1.2759089166575D-02 -8.2978234344923D-03
   173  1.7200000000000D+00 -1.0371408316323D-02 -7.3345860066850D-03
   174  1.7300000000000D+00 -8.2076663989568D-03 -6.2817003173364D-03
   175  1.7400000000000D+00 -6.2767983415219D-03 -5.1966721511533D-03
   176  1.7500000000000D+00 -4.5872836555075D-03 -4.1333596652955D-03
   177  1.7600000000000D+00 -3.1457534917824D-03 -3.1385422605866D-03
   178  1.7700000000000D+00 -1.9553974125788D-03 -2.2459324580925D-03
   179  1.7800000000000D+00 -1.0228698532725D-03 -1.4980641363903D-03
   180  1.7900000000000D+00 -3.6156397793898D-04 -9.7158038190968D-04
   181  1.8000000000000D+00  3.1000065331327D-05 -6.8851565370354D-04
   182  1.8100000000000D+00  1.7941307674380D-04 -4.9830187957328D-04
   183  1.8200000000000D+00  1.3030303119838D-04 -2.4867506835073D-04
   184  1.8300000000000D+00  1.8178274043939D-05 -3.0020556220442D-05
   185  1.8400000000000D+00 -2.8191283246854D-05  4.3801903413272D-05
   186  1.8500000000000D+00 -1.2512328109270D-05  1.8407141347528D-05
   187  1.8600000000000D+00  5.0482230951403D-06 -8.7570755709912D-06
   188  1.8700000000000D+00  4.2599197085173D-06 -7.2071782832437D-06
   189  1.8800000000000D+00 -2.9715208474413D-07  8.1941047123394D-07
   190  1.8900000000000D+00 -4.6042287477216D-07  1.2696371459376D-06
   191  1.9000000000000D+00  0.0000000000000D+00  0.0000000000000D+00
   192  1.9100000000000D+00  0.0000000000000D+00  0.0000000000000D+00
   193  1.9200000000000D+00  0.0000000000000D+00  0.0000000000000D+00
   194  1.9300000000000D+00  0.0000000000000D+00  0.0000000000000D+00
   195  1.9400000000000D+00  0.0000000000000D+00  0.0000000000000D+00
   196  1.9500000000000D+00  0.0000000000000D+00  0.0000000000000D+00
   197  1.9600000000000D+00  0.0000000000000D+00  0.0000000000000D+00
   198  1.9700000000000D+00  0.0000000000000D+00  0.0000000000000D+00
   199  1.9800000000000D+00  0.0000000000000D+00  0.0000000000000D+00
   200  1.9900000000000D+00  0.0000000000000D+00  0.0000000000000D+00
   201  2.0000000000000D+00  0.0000000000000D+00  0.0000000000000D+00
   202  2.0100000000000D+00  0.0000000000000D+00  0.0000000000000D+00
   203  2.0200000000000D+00  0.0000000000000D+00  0.0000000000000D+00
   204  2.0300000000000D+00  0.0000000000000D+00  0.0000000000000D+00
   205  2.0400000000000D+00  0.0000000000000D+00  0.0000000000000D+00
   206  2.0500000000000D+00  0.0000000000000D+00  0.0000000000000D+00
   207  2.0600000000000D+00  0.0000000000000D+00  0.0000000000000D+00
   208  2.0700000000000D+00  0.0000000000000D+00  0.0000000000000D+00
   209  2.0800000000000D+00  0.0000000000000D+00  0.0000000000000D+00
   210  2.0900000000000D+00  0.0000000000000D+00  0.0000000000000D+00
   211  2.1000000000000D+00  0.0000000000000D+00  0.0000000000000D+00
   212  2.1100000000000D+00  0.0000000000000D+00  0.0000000000000D+00
   213  2.1200000000000D+00  0.0000000000000D+00  0.0000000000000D+00
   214  2.1300000000000D+00  0.0000000000000D+00  0.0000000000000D+00
   215  2.1400000000000D+00  0.0000000000000D+00  0.0000000000000D+00
   216  2.1500000000000D+00  0.0000000000000D+00  0.0000000000000D+00
   217  2.1600000000000D+00  0.0000000000000D+00  0.0000000000000D+00
   218  2.1700000000000D+00  0.0000000000000D+00  0.0000000000000D+00
   219  2.1800000000000D+00  0.0000000000000D+00  0.0000000000000D+00
   220  2.1900000000000D+00  0.0000000000000D+00  0.0000000000000D+00
   221  2.2000000000000D+00  0.0000000000000D+00  0.0000000000000D+00
   222  2.2100000000000D+00  0.0000000000000D+00  0.0000000000000D+00
   223  2.2200000000000D+00  0.0000000000000D+00  0.0000000000000D+00
   224  2.2300000000000D+00  0.0000000000000D+00  0.0000000000000D+00
   225  2.2400000000000D+00  0.0000000000000D+00  0.0000000000000D+00
   226  2.2500000000000D+00  0.0000000000000D+00  0.0000000000000D+00
   227  2.2600000000000D+00  0.0000000000000D+00  0.0000000000000D+00
   228  2.2700000000000D+00  0.0000000000000D+00  0.0000000000000D+00
   229  2.2800000000000D+00  0.0000000000000D+00  0.0000000000000D+00
   230  2.2900000000000D+00  0.0000000000000D+00  0.0000000000000D+00
   231  2.3000000000000D+00  0.0000000000000D+00  0.0000000000000D+00
   232  2.3100000000000D+00  0.0000000000000D+00  0.0000000000000D+00
   233  2.3200000000000D+00  0.0000000000000D+00  0.0000000000000D+00
   234  2.3300000000000D+00  0.0000000000000D+00  0.0000000000000D+00
   235  2.3400000000000D+00  0.0000000000000D+00  0.0000000000000D+00
   236  2.3500000000000D+00  0.0000000000000D+00  0.0000000000000D+00
   237  2.3600000000000D+00  0.0000000000000D+00  0.0000000000000D+00
   238  2.3700000000000D+00  0.0000000000000D+00  0.0000000000000D+00
   239  2.3800000000000D+00  0.0000000000000D+00  0.0000000000000D+00
   240  2.3900000000000D+00  0.0000000000000D+00  0.0000000000000D+00
   241  2.4000000000000D+00  0.0000000000000D+00  0.0000000000000D+00
   242  2.4100000000000D+00  0.0000000000000D+00  0.0000000000000D+00
   243  2.4200000000000D+00  0.0000000000000D+00  0.0000000000000D+00
   244  2.4300000000000D+00  0.0000000000000D+00  0.0000000000000D+00
   245  2.4400000000000D+00  0.0000000000000D+00  0.0000000000000D+00
   246  2.4500000000000D+00  0.0000000000000D+00  0.0000000000000D+00
   247  2.4600000000000D+00  0.0000000000000D+00  0.0000000000000D+00
   248  2.4700000000000D+00  0.0000000000000D+00  0.0000000000000D+00
   249  2.4800000000000D+00  0.0000000000000D+00  0.0000000000000D+00
   250  2.4900000000000D+00  0.0000000000000D+00  0.0000000000000D+00
   251  2.5000000000000D+00  0.0000000000000D+00  0.0000000000000D+00
   252  2.5100000000000D+00  0.0000000000000D+00  0.0000000000000D+00
   253  2.5200000000000D+00  0.0000000000000D+00  0.0000000000000D+00
   254  2.5300000000000D+00  0.0000000000000D+00  0.0000000000000D+00
   255  2.5400000000000D+00  0.0000000000000D+00  0.0000000000000D+00
   256  2.5500000000000D+00  0.0000000000000D+00  0.0000000000000D+00
   257  2.5600000000000D+00  0.0000000000000D+00  0.0000000000000D+00
   258  2.5700000000000D+00  0.0000000000000D+00  0.0000000000000D+00
   259  2.5800000000000D+00  0.0000000000000D+00  0.0000000000000D+00
   260  2.5900000000000D+00  0.0000000000000D+00  0.0000000000000D+00
   261  2.6000000000000D+00  0.0000000000000D+00  0.0000000000000D+00
   262  2.6100000000000D+00  0.0000000000000D+00  0.0000000000000D+00
   263  2.6200000000000D+00  0.0000000000000D+00  0.0000000000000D+00
   264  2.6300000000000D+00  0.0000000000000D+00  0.0000000000000D+00
   265  2.6400000000000D+00  0.0000000000000D+00  0.0000000000000D+00
   266  2.6500000000000D+00  0.0000000000000D+00  0.0000000000000D+00
   267  2.6600000000000D+00  0.0000000000000D+00  0.0000000000000D+00
   268  2.6700000000000D+00  0.0000000000000D+00  0.0000000000000D+00
   269  2.6800000000000D+00  0.0000000000000D+00  0.0000000000000D+00
   270  2.6900000000000D+00  0.0000000000000D+00  0.0000000000000D+00
   271  2.7000000000000D+00  0.0000000000000D+00  0.0000000000000D+00
   272  2.7100000000000D+00  0.0000000000000D+00  0.0000000000000D+00
   273  2.7200000000000D+00  0.0000000000000D+00  0.0000000000000D+00
   274  2.7300000000000D+00  0.0000000000000D+00  0.0000000000000D+00
   275  2.7400000000000D+00  0.0000000000000D+00  0.0000000000000D+00
   276  2.7500000000000D+00  0.0000000000000D+00  0.0000000000000D+00
   277  2.7600000000000D+00  0.0000000000000D+00  0.0000000000000D+00
   278  2.7700000000000D+00  0.0000000000000D+00  0.0000000000000D+00
   279  2.7800000000000D+00  0.0000000000000D+00  0.0000000000000D+00
   280  2.7900000000000D+00  0.0000000000000D+00  0.0000000000000D+00
   281  2.8000000000000D+00  0.0000000000000D+00  0.0000000000000D+00
   282  2.8100000000000D+00  0.0000000000000D+00  0.0000000000000D+00
   283  2.8200000000000D+00  0.0000000000000D+00  0.0000000000000D+00
   284  2.8300000000000D+00  0.0000000000000D+00  0.0000000000000D+00
   285  2.8400000000000D+00  0.0000000000000D+00  0.0000000000000D+00
   286  2.8500000000000D+00  0.0000000000000D+00  0.0000000000000D+00
   287  2.8600000000000D+00  0.0000000000000D+00  0.0000000000000D+00
   288  2.8700000000000D+00  0.0000000000000D+00  0.0000000000000D+00
   289  2.8800000000000D+00  0.0000000000000D+00  0.0000000000000D+00
   290  2.8900000000000D+00  0.0000000000000D+00  0.0000000000000D+00
   291  2.9000000000000D+00  0.0000000000000D+00  0.0000000000000D+00
   292  2.9100000000000D+00  0.0000000000000D+00  0.0000000000000D+00
   293  2.9200000000000D+00  0.0000000000000D+00  0.0000000000000D+00
   294  2.9300000000000D+00  0.0000000000000D+00  0.0000000000000D+00
   295  2.9400000000000D+00  0.0000000000000D+00  0.0000000000000D+00
   296  2.9500000000000D+00  0.0000000000000D+00  0.0000000000000D+00
   297  2.9600000000000D+00  0.0000000000000D+00  0.0000000000000D+00
   298  2.9700000000000D+00  0.0000000000000D+00  0.0000000000000D+00
   299  2.9800000000000D+00  0.0000000000000D+00  0.0000000000000D+00
   300  2.9900000000000D+00  0.0000000000000D+00  0.0000000000000D+00
   301  3.0000000000000D+00  0.0000000000000D+00  0.0000000000000D+00
   302  3.0100000000000D+00  0.0000000000000D+00  0.0000000000000D+00
   303  3.0200000000000D+00  0.0000000000000D+00  0.0000000000000D+00
   304  3.0300000000000D+00  0.0000000000000D+00  0.0000000000000D+00
   305  3.0400000000000D+00  0.0000000000000D+00  0.0000000000000D+00
   306  3.0500000000000D+00  0.0000000000000D+00  0.0000000000000D+00
   307  3.0600000000000D+00  0.0000000000000D+00  0.0000000000000D+00
   308  3.0700000000000D+00  0.0000000000000D+00  0.0000000000000D+00
   309  3.0800000000000D+00  0.0000000000000D+00  0.0000000000000D+00
   310  3.0900000000000D+00  0.0000000000000D+00  0.0000000000000D+00
   311  3.1000000000000D+00  0.0000000000000D+00  0.0000000000000D+00
   312  3.1100000000000D+00  0.0000000000000D+00  0.0000000000000D+00
   313  3.1200000000000D+00  0.0000000000000D+00  0.0000000000000D+00
   314  3.1300000000000D+00  0.0000000000000D+00  0.0000000000000D+00
   315  3.1400000000000D+00  0.0000000000000D+00  0.0000000000000D+00
   316  3.1500000000000D+00  0.0000000000000D+00  0.0000000000000D+00
   317  3.1600000000000D+00  0.0000000000000D+00  0.0000000000000D+00
   318  3.1700000000000D+00  0.0000000000000D+00  0.0000000000000D+00
   319  3.1800000000000D+00  0.0000000000000D+00  0.0000000000000D+00
   320  3.1900000000000D+00  0.0000000000000D+00  0.0000000000000D+00
   321  3.2000000000000D+00  0.0000000000000D+00  0.0000000000000D+00
   322  3.2100000000000D+00  0.0000000000000D+00  0.0000000000000D+00
   323  3.2200000000000D+00  0.0000000000000D+00  0.0000000000000D+00
   324  3.2300000000000D+00  0.0000000000000D+00  0.0000000000000D+00
   325  3.2400000000000D+00  0.0000000000000D+00  0.0000000000000D+00
   326  3.2500000000000D+00  0.0000000000000D+00  0.0000000000000D+00
   327  3.2600000000000D+00  0.0000000000000D+00  0.0000000000000D+00
   328  3.2700000000000D+00  0.0000000000000D+00  0.0000000000000D+00
   329  3.2800000000000D+00  0.0000000000000D+00  0.0000000000000D+00
   330  3.2900000000000D+00  0.0000000000000D+00  0.0000000000000D+00
   331  3.3000000000000D+00  0.0000000000000D+00  0.0000000000000D+00
   332  3.3100000000000D+00  0.0000000000000D+00  0.0000000000000D+00
   333  3.3200000000000D+00  0.0000000000000D+00  0.0000000000000D+00
   334  3.3300000000000D+00  0.0000000000000D+00  0.0000000000000D+00
   335  3.3400000000000D+00  0.0000000000000D+00  0.0000000000000D+00
   336  3.3500000000000D+00  0.0000000000000D+00  0.0000000000000D+00
   337  3.3600000000000D+00  0.0000000000000D+00  0.0000000000000D+00
   338  3.3700000000000D+00  0.0000000000000D+00  0.0000000000000D+00
   339  3.3800000000000D+00  0.0000000000000D+00  0.0000000000000D+00
   340  3.3900000000000D+00  0.0000000000000D+00  0.0000000000000D+00
   341  3.4000000000000D+00  0.0000000000000D+00  0.0000000000000D+00
   342  3.4100000000000D+00  0.0000000000000D+00  0.0000000000000D+00
   343  3.4200000000000D+00  0.0000000000000D+00  0.0000000000000D+00
   344  3.4300000000000D+00  0.0000000000000D+00  0.0000000000000D+00
   345  3.4400000000000D+00  0.0000000000000D+00  0.0000000000000D+00
   346  3.4500000000000D+00  0.0000000000000D+00  0.0000000000000D+00
   347  3.4600000000000D+00  0.0000000000000D+00  0.0000000000000D+00
   348  3.4700000000000D+00  0.0000000000000D+00  0.0000000000000D+00
   349  3.4800000000000D+00  0.0000000000000D+00  0.0000000000000D+00
   350  3.4900000000000D+00  0.0000000000000D+00  0.0000000000000D+00
   351  3.5000000000000D+00  0.0000000000000D+00  0.0000000000000D+00
   352  3.5100000000000D+00  0.0000000000000D+00  0.0000000000000D+00
   353  3.5200000000000D+00  0.0000000000000D+00  0.0000000000000D+00
   354  3.5300000000000D+00  0.0000000000000D+00  0.0000000000000D+00
   355  3.5400000000000D+00  0.0000000000000D+00  0.0000000000000D+00
   356  3.5500000000000D+00  0.0000000000000D+00  0.0000000000000D+00
   357  3.5600000000000D+00  0.0000000000000D+00  0.0000000000000D+00
   358  3.5700000000000D+00  0.0000000000000D+00  0.0000000000000D+00
   359  3.5800000000000D+00  0.0000000000000D+00  0.0000000000000D+00
   360  3.5900000000000D+00  0.0000000000000D+00  0.0000000000000D+00
   361  3.6000000000000D+00  0.0000000000000D+00  0.0000000000000D+00
   362  3.6100000000000D+00  0.0000000000000D+00  0.0000000000000D+00
   363  3.6200000000000D+00  0.0000000000000D+00  0.0000000000000D+00
   364  3.6300000000000D+00  0.0000000000000D+00  0.0000000000000D+00
   365  3.6400000000000D+00  0.0000000000000D+00  0.0000000000000D+00
   366  3.6500000000000D+00  0.0000000000000D+00  0.0000000000000D+00
   367  3.6600000000000D+00  0.0000000000000D+00  0.0000000000000D+00
   368  3.6700000000000D+00  0.0000000000000D+00  0.0000000000000D+00
   369  3.6800000000000D+00  0.0000000000000D+00  0.0000000000000D+00
   370  3.6900000000000D+00  0.0000000000000D+00  0.0000000000000D+00
   371  3.7000000000000D+00  0.0000000000000D+00  0.0000000000000D+00
   372  3.7100000000000D+00  0.0000000000000D+00  0.0000000000000D+00
   373  3.7200000000000D+00  0.0000000000000D+00  0.0000000000000D+00
   374  3.7300000000000D+00  0.0000000000000D+00  0.0000000000000D+00
   375  3.7400000000000D+00  0.0000000000000D+00  0.0000000000000D+00
   376  3.7500000000000D+00  0.0000000000000D+00  0.0000000000000D+00
   377  3.7600000000000D+00  0.0000000000000D+00  0.0000000000000D+00
   378  3.7700000000000D+00  0.0000000000000D+00  0.0000000000000D+00
   379  3.7800000000000D+00  0.0000000000000D+00  0.0000000000000D+00
   380  3.7900000000000D+00  0.0000000000000D+00  0.0000000000000D+00
   381  3.8000000000000D+00  0.0000000000000D+00  0.0000000000000D+00
   382  3.8100000000000D+00  0.0000000000000D+00  0.0000000000000D+00
   383  3.8200000000000D+00  0.0000000000000D+00  0.0000000000000D+00
   384  3.8300000000000D+00  0.0000000000000D+00  0.0000000000000D+00
   385  3.8400000000000D+00  0.0000000000000D+00  0.0000000000000D+00
   386  3.8500000000000D+00  0.0000000000000D+00  0.0000000000000D+00
   387  3.8600000000000D+00  0.0000000000000D+00  0.0000000000000D+00
   388  3.8700000000000D+00  0.0000000000000D+00  0.0000000000000D+00
   389  3.8800000000000D+00  0.0000000000000D+00  0.0000000000000D+00
   390  3.8900000000000D+00  0.0000000000000D+00  0.0000000000000D+00
   391  3.9000000000000D+00  0.0000000000000D+00  0.0000000000000D+00
   392  3.9100000000000D+00  0.0000000000000D+00  0.0000000000000D+00
   393  3.9200000000000D+00  0.0000000000000D+00  0.0000000000000D+00
   394  3.9300000000000D+00  0.0000000000000D+00  0.0000000000000D+00
   395  3.9400000000000D+00  0.0000000000000D+00  0.0000000000000D+00
   396  3.9500000000000D+00  0.0000000000000D+00  0.0000000000000D+00
   397  3.9600000000000D+00  0.0000000000000D+00  0.0000000000000D+00
   398  3.9700000000000D+00  0.0000000000000D+00  0.0000000000000D+00
   399  3.9800000000000D+00  0.0000000000000D+00  0.0000000000000D+00
   400  3.9900000000000D+00  0.0000000000000D+00  0.0000000000000D+00
   401  4.0000000000000D+00  0.0000000000000D+00  0.0000000000000D+00
   402  4.0100000000000D+00  0.0000000000000D+00  0.0000000000000D+00
   403  4.0200000000000D+00  0.0000000000000D+00  0.0000000000000D+00
   404  4.0300000000000D+00  0.0000000000000D+00  0.0000000000000D+00
   405  4.0400000000000D+00  0.0000000000000D+00  0.0000000000000D+00
   406  4.0500000000000D+00  0.0000000000000D+00  0.0000000000000D+00
   407  4.0600000000000D+00  0.0000000000000D+00  0.0000000000000D+00
   408  4.0700000000000D+00  0.0000000000000D+00  0.0000000000000D+00
   409  4.0800000000000D+00  0.0000000000000D+00  0.0000000000000D+00
   410  4.0900000000000D+00  0.0000000000000D+00  0.0000000000000D+00
   411  4.1000000000000D+00  0.0000000000000D+00  0.0000000000000D+00
   412  4.1100000000000D+00  0.0000000000000D+00  0.0000000000000D+00
   413  4.1200000000000D+00  0.0000000000000D+00  0.0000000000000D+00
   414  4.1300000000000D+00  0.0000000000000D+00  0.0000000000000D+00
   415  4.1400000000000D+00  0.0000000000000D+00  0.0000000000000D+00
   416  4.1500000000000D+00  0.0000000000000D+00  0.0000000000000D+00
   417  4.1600000000000D+00  0.0000000000000D+00  0.0000000000000D+00
   418  4.1700000000000D+00  0.0000000000000D+00  0.0000000000000D+00
   419  4.1800000000000D+00  0.0000000000000D+00  0.0000000000000D+00
   420  4.1900000000000D+00  0.0000000000000D+00  0.0000000000000D+00
   421  4.2000000000000D+00  0.0000000000000D+00  0.0000000000000D+00
   422  4.2100000000000D+00  0.0000000000000D+00  0.0000000000000D+00