Cu    ONCVPSP-3.3.0  r_core=   1.26204   1.45626   1.76249
     29.0000     19.0000      220408    zatom,zion,pspd
     8       2   2     4   600     0    pspcod,pspxc,lmax,lloc,mmax,r2well
  5.99000000  0.00000000  0.00000000    rchrg fchrg qchrg
     2     2     2     0     0    nproj
     1     1           extension_switch
   0                         4.9919022981277D+00 -4.0570136450561D-01
     1  0.0000000000000D+00 -3.4662986925227D-09 -1.0409329509464D-08
     2  1.0000000000000D-02  1.0428874280096D-01  3.6431128306336D-02
     3  2.0000000000000D-02  2.0812459546081D-01  7.2517803215870D-02
     4  3.0000000000000D-02  3.1105827610430D-01  1.0792250866300D-01
     5  4.0000000000000D-02  4.1264766858714D-01  1.4232146400949D-01
     6  5.0000000000000D-02  5.1246127926827D-01  1.7541114640200D-01
     7  6.0000000000000D-02  6.1008154499765D-01  2.0691440629785D-01
     8  7.0000000000000D-02  7.0510794688573D-01  2.3658605305238D-01
     9  8.0000000000000D-02  7.9715988788752D-01  2.6421779787048D-01
    10  9.0000000000000D-02  8.8587929644306D-01  2.8964245405805D-01
    11  1.0000000000000D-01  9.7093292329007D-01  3.1273730912405D-01
    12  1.1000000000000D-01  1.0520143040103D+00  3.3342659960025D-01
    13  1.2000000000000D-01  1.1288453657884D+00  3.5168303715030D-01
    14  1.3000000000000D-01  1.2011776631375D+00  3.6752835329237D-01
    15  1.4000000000000D-01  1.2687932338641D+00  3.8103284949781D-01
    16  1.5000000000000D-01  1.3315050731801D+00  3.9231395917840D-01
    17  1.6000000000000D-01  1.3891572305015D+00  4.0153384775243D-01
    18  1.7000000000000D-01  1.4416245399715D+00  4.0889609620445D-01
    19  1.8000000000000D-01  1.4888120019911D+00  4.1464153194925D-01
    20  1.9000000000000D-01  1.5306538389179D+00  4.1904328801781D-01
    21  2.0000000000000D-01  1.5671122534816D+00  4.2240118726197D-01
    22  2.1000000000000D-01  1.5981759232770D+00  4.2503556211549D-01
    23  2.2000000000000D-01  1.6238582688251D+00  4.2728063217431D-01
    24  2.3000000000000D-01  1.6441955360755D+00  4.2947757123003D-01
    25  2.4000000000000D-01  1.6592447367830D+00  4.3196740221598D-01
    26  2.5000000000000D-01  1.6690814918902D+00  4.3508386265661D-01
    27  2.6000000000000D-01  1.6737978238465D+00  4.3914638455620D-01
    28  2.7000000000000D-01  1.6734999436810D+00  4.4445333117787D-01
    29  2.8000000000000D-01  1.6683060776238D+00  4.5127562886312D-01
    30  2.9000000000000D-01  1.6583443761618D+00  4.5985092499115D-01
    31  3.0000000000000D-01  1.6437509456480D+00  4.7037839349689D-01
    32  3.1000000000000D-01  1.6246680390296D+00  4.8301429722739D-01
    33  3.2000000000000D-01  1.6012424379692D+00  4.9786840204021D-01
    34  3.3000000000000D-01  1.5736240537099D+00  5.1500132119619D-01
    35  3.4000000000000D-01  1.5419647685576D+00  5.3442285058073D-01
    36  3.5000000000000D-01  1.5064175339485D+00  5.5609133593837D-01
    37  3.6000000000000D-01  1.4671357348401D+00  5.7991409299400D-01
    38  3.7000000000000D-01  1.4242728237431D+00  6.0574888044965D-01
    39  3.8000000000000D-01  1.3779822212247D+00  6.3340640478892D-01
    40  3.9000000000000D-01  1.3284174732948D+00  6.6265381500426D-01
    41  4.0000000000000D-01  1.2757326498639D+00  6.9321912519226D-01
    42  4.1000000000000D-01  1.2200829625626D+00  7.2479648383699D-01
    43  4.2000000000000D-01  1.1616255747637D+00  7.5705219090694D-01
    44  4.3000000000000D-01  1.1005205717611D+00  7.8963134798238D-01
    45  4.4000000000000D-01  1.0369320548331D+00  8.2216501283636D-01
    46  4.5000000000000D-01  9.7102931946037D-01  8.5427771850143D-01
    47  4.6000000000000D-01  9.0298807533428D-01  8.8559520811306D-01
    48  4.7000000000000D-01  8.3299166406663D-01  9.1575223092323D-01
    49  4.8000000000000D-01  7.6123222972047D-01  9.4440024197075D-01
    50  4.9000000000000D-01  6.8791179746471D-01  9.7121484806123D-01
    51  5.0000000000000D-01  6.1324321681256D-01  9.9590284598253D-01
    52  5.1000000000000D-01  5.3745092802462D-01  1.0182087052218D+00
    53  5.2000000000000D-01  4.6077151331334D-01  1.0379203567754D+00
    54  5.3000000000000D-01  3.8345399842467D-01  1.0548741618030D+00
    55  5.4000000000000D-01  3.0575987492156D-01  1.0689589486391D+00
    56  5.5000000000000D-01  2.2796281898129D-01  1.0801190238379D+00
    57  5.6000000000000D-01  1.5034808862711D-01  1.0883560821152D+00
    58  5.7000000000000D-01  7.3211587936792D-02  1.0937299609462D+00
    59  5.8000000000000D-01 -3.1414062068000D-03  1.0963582078299D+00
    60  5.9000000000000D-01 -7.8397852007720D-02  1.0964144513008D+00
    61  6.0000000000000D-01 -1.5223887508303D-01  1.0941255904074D+00
    62  6.1000000000000D-01 -2.2434200769239D-01  1.0897678409066D+00
    63  6.2000000000000D-01 -2.9438371017775D-01  1.0836616995854D+00
    64  6.3000000000000D-01 -3.6204214309178D-01  1.0761659103598D+00
    65  6.4000000000000D-01 -4.2700015216300D-01  1.0676705366070D+00
    66  6.5000000000000D-01 -4.8894842247542D-01  1.0585892633795D+00
    67  6.6000000000000D-01 -5.4758875324845D-01  1.0493510700199D+00
    68  6.7000000000000D-01 -6.0263740043225D-01  1.0403914281234D+00
    69  6.8000000000000D-01 -6.5382843109743D-01  1.0321431914187D+00
    70  6.9000000000000D-01 -7.0091703140304D-01  1.0250273526106D+00
    71  7.0000000000000D-01 -7.4368270879955D-01  1.0194438474509D+00
    72  7.1000000000000D-01 -7.8193232912194D-01  1.0157625881083D+00
    73  7.2000000000000D-01 -8.1550293037588D-01  1.0143149061782D+00
    74  7.3000000000000D-01 -8.4426425730179D-01  1.0153855804598D+00
    75  7.4000000000000D-01 -8.6812096421336D-01  1.0192056159233D+00
    76  7.5000000000000D-01 -8.8701443806299D-01  1.0259459283350D+00
    77  7.6000000000000D-01 -9.0092419918006D-01  1.0357120738249D+00
    78  7.7000000000000D-01 -9.0986884351550D-01  1.0485401446753D+00
    79  7.8000000000000D-01 -9.1390649742343D-01  1.0643939320349D+00
    80  7.9000000000000D-01 -9.1313476389823D-01  1.0831634334733D+00
    81  8.0000000000000D-01 -9.0769014761526D-01  1.1046647587215D+00
    82  8.1000000000000D-01 -8.9774695494762D-01  1.1286414610389D+00
    83  8.2000000000000D-01 -8.8351567418944D-01  1.1547672948912D+00
    84  8.3000000000000D-01 -8.6524085033907D-01  1.1826503735114D+00
    85  8.4000000000000D-01 -8.4319847781363D-01  1.2118386729806D+00
    86  8.5000000000000D-01 -8.1769294320762D-01  1.2418268032036D+00
    87  8.6000000000000D-01 -7.8905355850455D-01  1.2720639410940D+00
    88  8.7000000000000D-01 -7.5763073284037D-01  1.3019627979106D+00
    89  8.8000000000000D-01 -7.2379183784829D-01  1.3309094714584D+00
    90  8.9000000000000D-01 -6.8791682764675D-01  1.3582740152312D+00
    91  9.0000000000000D-01 -6.5039367954152D-01  1.3834215408868D+00
    92  9.1000000000000D-01 -6.1161372539327D-01  1.4057236580647D+00
    93  9.2000000000000D-01 -5.7196694626656D-01  1.4245700467277D+00
    94  9.3000000000000D-01 -5.3183730436209D-01  1.4393799521548D+00
    95  9.4000000000000D-01 -4.9159818629947D-01  1.4496133915518D+00
    96  9.5000000000000D-01 -4.5160803054810D-01  1.4547818640542D+00
    97  9.6000000000000D-01 -4.1220620920686D-01  1.4544583626379D+00
    98  9.7000000000000D-01 -3.7370923045645D-01  1.4482864970297D+00
    99  9.8000000000000D-01 -3.3640732283256D-01  1.4359885511440D+00
   100  9.9000000000000D-01 -3.0056145625892D-01  1.4173723161423D+00
   101  1.0000000000000D+00 -2.6640084749253D-01  1.3923365609987D+00
   102  1.0100000000000D+00 -2.3412098925014D-01  1.3608750265499D+00
   103  1.0200000000000D+00 -2.0388223341185D-01  1.3230788546224D+00
   104  1.0300000000000D+00 -1.7580894901916D-01  1.2791373918872D+00
   105  1.0400000000000D+00 -1.4998926570665D-01  1.2293373373849D+00
   106  1.0500000000000D+00 -1.2647540268746D-01  1.1740602333353D+00
   107  1.0600000000000D+00 -1.0528457371858D-01  1.1137783271481D+00
   108  1.0700000000000D+00 -8.6400447117860D-02  1.0490488657751D+00
   109  1.0800000000000D+00 -6.9775130769179D-02  9.8050691031556D-01
   110  1.0900000000000D+00 -5.5331642158974D-02  9.0885678780972D-01
   111  1.1000000000000D+00 -4.2966814775257D-02  8.3486232273507D-01
   112  1.1100000000000D+00 -3.2554584668541D-02  7.5933601285474D-01
   113  1.1200000000000D+00 -2.3949593009871D-02  6.8312733748383D-01
   114  1.1300000000000D+00 -1.6991035497805D-02  6.0711040089578D-01
   115  1.1400000000000D+00 -1.1506684469238D-02  5.3217112827225D-01
   116  1.1500000000000D+00 -7.3170066183297D-03  4.5919424027334D-01
   117  1.1600000000000D+00 -4.2392965504851D-03  3.8905024013174D-01
   118  1.1700000000000D+00 -2.0917447925666D-03  3.2258265356314D-01
   119  1.1800000000000D+00 -6.9736310011848D-04  2.6059574376056D-01
   120  1.1900000000000D+00  1.1225384916532D-04  2.0384272904347D-01
   121  1.2000000000000D+00  4.9363118548023D-04  1.5301554148620D-01
   122  1.2100000000000D+00  5.8834808233664D-04  1.0873525776644D-01
   123  1.2200000000000D+00  5.1844476101188D-04  7.1544713664541D-02
   124  1.2300000000000D+00  3.8151458730516D-04  4.1860058936932D-02
   125  1.2400000000000D+00  2.4480064715677D-04  1.9866248016978D-02
   126  1.2500000000000D+00  1.6394791742471D-04  6.3673367018411D-03
   127  1.2600000000000D+00  1.3047989403742D-04  7.5572752344646D-04
   128  1.2700000000000D+00  5.5602732941389D-05 -2.7286968839180D-04
   129  1.2800000000000D+00 -8.4580074267838D-06  6.9076139046726D-05
   130  1.2900000000000D+00 -4.7863986944948D-06  4.8697811473790D-05
   131  1.3000000000000D+00  2.7354896890006D-06 -1.8597553253012D-05
   132  1.3100000000000D+00 -1.5175602832267D-07 -3.7222009075038D-07
   133  1.3200000000000D+00 -2.2144114854531D-07 -5.4314049542829D-07
   134  1.3300000000000D+00  0.0000000000000D+00  0.0000000000000D+00
   135  1.3400000000000D+00  0.0000000000000D+00  0.0000000000000D+00
   136  1.3500000000000D+00  0.0000000000000D+00  0.0000000000000D+00
   137  1.3600000000000D+00  0.0000000000000D+00  0.0000000000000D+00
   138  1.3700000000000D+00  0.0000000000000D+00  0.0000000000000D+00
   139  1.3800000000000D+00  0.0000000000000D+00  0.0000000000000D+00
   140  1.3900000000000D+00  0.0000000000000D+00  0.0000000000000D+00
   141  1.4000000000000D+00  0.0000000000000D+00  0.0000000000000D+00
   142  1.4100000000000D+00  0.0000000000000D+00  0.0000000000000D+00
   143  1.4200000000000D+00  0.0000000000000D+00  0.0000000000000D+00
   144  1.4300000000000D+00  0.0000000000000D+00  0.0000000000000D+00
   145  1.4400000000000D+00  0.0000000000000D+00  0.0000000000000D+00
   146  1.4500000000000D+00  0.0000000000000D+00  0.0000000000000D+00
   147  1.4600000000000D+00  0.0000000000000D+00  0.0000000000000D+00
   148  1.4700000000000D+00  0.0000000000000D+00  0.0000000000000D+00
   149  1.4800000000000D+00  0.0000000000000D+00  0.0000000000000D+00
   150  1.4900000000000D+00  0.0000000000000D+00  0.0000000000000D+00
   151  1.5000000000000D+00  0.0000000000000D+00  0.0000000000000D+00
   152  1.5100000000000D+00  0.0000000000000D+00  0.0000000000000D+00
   153  1.5200000000000D+00  0.0000000000000D+00  0.0000000000000D+00
   154  1.5300000000000D+00  0.0000000000000D+00  0.0000000000000D+00
   155  1.5400000000000D+00  0.0000000000000D+00  0.0000000000000D+00
   156  1.5500000000000D+00  0.0000000000000D+00  0.0000000000000D+00
   157  1.5600000000000D+00  0.0000000000000D+00  0.0000000000000D+00
   158  1.5700000000000D+00  0.0000000000000D+00  0.0000000000000D+00
   159  1.5800000000000D+00  0.0000000000000D+00  0.0000000000000D+00
   160  1.5900000000000D+00  0.0000000000000D+00  0.0000000000000D+00
   161  1.6000000000000D+00  0.0000000000000D+00  0.0000000000000D+00
   162  1.6100000000000D+00  0.0000000000000D+00  0.0000000000000D+00
   163  1.6200000000000D+00  0.0000000000000D+00  0.0000000000000D+00
   164  1.6300000000000D+00  0.0000000000000D+00  0.0000000000000D+00
   165  1.6400000000000D+00  0.0000000000000D+00  0.0000000000000D+00
   166  1.6500000000000D+00  0.0000000000000D+00  0.0000000000000D+00
   167  1.6600000000000D+00  0.0000000000000D+00  0.0000000000000D+00
   168  1.6700000000000D+00  0.0000000000000D+00  0.0000000000000D+00
   169  1.6800000000000D+00  0.0000000000000D+00  0.0000000000000D+00
   170  1.6900000000000D+00  0.0000000000000D+00  0.0000000000000D+00
   171  1.7000000000000D+00  0.0000000000000D+00  0.0000000000000D+00
   172  1.7100000000000D+00  0.0000000000000D+00  0.0000000000000D+00
   173  1.7200000000000D+00  0.0000000000000D+00  0.0000000000000D+00
   174  1.7300000000000D+00  0.0000000000000D+00  0.0000000000000D+00
   175  1.7400000000000D+00  0.0000000000000D+00  0.0000000000000D+00
   176  1.7500000000000D+00  0.0000000000000D+00  0.0000000000000D+00
   177  1.7600000000000D+00  0.0000000000000D+00  0.0000000000000D+00
   178  1.7700000000000D+00  0.0000000000000D+00  0.0000000000000D+00
   179  1.7800000000000D+00  0.0000000000000D+00  0.0000000000000D+00
   180  1.7900000000000D+00  0.0000000000000D+00  0.0000000000000D+00
   181  1.8000000000000D+00  0.0000000000000D+00  0.0000000000000D+00
   182  1.8100000000000D+00  0.0000000000000D+00  0.0000000000000D+00
   183  1.8200000000000D+00  0.0000000000000D+00  0.0000000000000D+00
   184  1.8300000000000D+00  0.0000000000000D+00  0.0000000000000D+00
   185  1.8400000000000D+00  0.0000000000000D+00  0.0000000000000D+00
   186  1.8500000000000D+00  0.0000000000000D+00  0.0000000000000D+00
   187  1.8600000000000D+00  0.0000000000000D+00  0.0000000000000D+00
   188  1.8700000000000D+00  0.0000000000000D+00  0.0000000000000D+00
   189  1.8800000000000D+00  0.0000000000000D+00  0.0000000000000D+00
   190  1.8900000000000D+00  0.0000000000000D+00  0.0000000000000D+00
   191  1.9000000000000D+00  0.0000000000000D+00  0.0000000000000D+00
   192  1.9100000000000D+00  0.0000000000000D+00  0.0000000000000D+00
   193  1.9200000000000D+00  0.0000000000000D+00  0.0000000000000D+00
   194  1.9300000000000D+00  0.0000000000000D+00  0.0000000000000D+00
   195  1.9400000000000D+00  0.0000000000000D+00  0.0000000000000D+00
   196  1.9500000000000D+00  0.0000000000000D+00  0.0000000000000D+00
   197  1.9600000000000D+00  0.0000000000000D+00  0.0000000000000D+00
   198  1.9700000000000D+00  0.0000000000000D+00  0.0000000000000D+00
   199  1.9800000000000D+00  0.0000000000000D+00  0.0000000000000D+00
   200  1.9900000000000D+00  0.0000000000000D+00  0.0000000000000D+00
   201  2.0000000000000D+00  0.0000000000000D+00  0.0000000000000D+00
   202  2.0100000000000D+00  0.0000000000000D+00  0.0000000000000D+00
   203  2.0200000000000D+00  0.0000000000000D+00  0.0000000000000D+00
   204  2.0300000000000D+00  0.0000000000000D+00  0.0000000000000D+00
   205  2.0400000000000D+00  0.0000000000000D+00  0.0000000000000D+00
   206  2.0500000000000D+00  0.0000000000000D+00  0.0000000000000D+00
   207  2.0600000000000D+00  0.0000000000000D+00  0.0000000000000D+00
   208  2.0700000000000D+00  0.0000000000000D+00  0.0000000000000D+00
   209  2.0800000000000D+00  0.0000000000000D+00  0.0000000000000D+00
   210  2.0900000000000D+00  0.0000000000000D+00  0.0000000000000D+00
   211  2.1000000000000D+00  0.0000000000000D+00  0.0000000000000D+00
   212  2.1100000000000D+00  0.0000000000000D+00  0.0000000000000D+00
   213  2.1200000000000D+00  0.0000000000000D+00  0.0000000000000D+00
   214  2.1300000000000D+00  0.0000000000000D+00  0.0000000000000D+00
   215  2.1400000000000D+00  0.0000000000000D+00  0.0000000000000D+00
   216  2.1500000000000D+00  0.0000000000000D+00  0.0000000000000D+00
   217  2.1600000000000D+00  0.0000000000000D+00  0.0000000000000D+00
   218  2.1700000000000D+00  0.0000000000000D+00  0.0000000000000D+00
   219  2.1800000000000D+00  0.0000000000000D+00  0.0000000000000D+00
   220  2.1900000000000D+00  0.0000000000000D+00  0.0000000000000D+00
   221  2.2000000000000D+00  0.0000000000000D+00  0.0000000000000D+00
   222  2.2100000000000D+00  0.0000000000000D+00  0.0000000000000D+00
   223  2.2200000000000D+00  0.0000000000000D+00  0.0000000000000D+00
   224  2.2300000000000D+00  0.0000000000000D+00  0.0000000000000D+00
   225  2.2400000000000D+00  0.0000000000000D+00  0.0000000000000D+00
   226  2.2500000000000D+00  0.0000000000000D+00  0.0000000000000D+00
   227  2.2600000000000D+00  0.0000000000000D+00  0.0000000000000D+00
   228  2.2700000000000D+00  0.0000000000000D+00  0.0000000000000D+00
   229  2.2800000000000D+00  0.0000000000000D+00  0.0000000000000D+00
   230  2.2900000000000D+00  0.0000000000000D+00  0.0000000000000D+00
   231  2.3000000000000D+00  0.0000000000000D+00  0.0000000000000D+00
   232  2.3100000000000D+00  0.0000000000000D+00  0.0000000000000D+00
   233  2.3200000000000D+00  0.0000000000000D+00  0.0000000000000D+00
   234  2.3300000000000D+00  0.0000000000000D+00  0.0000000000000D+00
   235  2.3400000000000D+00  0.0000000000000D+00  0.0000000000000D+00
   236  2.3500000000000D+00  0.0000000000000D+00  0.0000000000000D+00
   237  2.3600000000000D+00  0.0000000000000D+00  0.0000000000000D+00
   238  2.3700000000000D+00  0.0000000000000D+00  0.0000000000000D+00
   239  2.3800000000000D+00  0.0000000000000D+00  0.0000000000000D+00
   240  2.3900000000000D+00  0.0000000000000D+00  0.0000000000000D+00
   241  2.4000000000000D+00  0.0000000000000D+00  0.0000000000000D+00
   242  2.4100000000000D+00  0.0000000000000D+00  0.0000000000000D+00
   243  2.4200000000000D+00  0.0000000000000D+00  0.0000000000000D+00
   244  2.4300000000000D+00  0.0000000000000D+00  0.0000000000000D+00
   245  2.4400000000000D+00  0.0000000000000D+00  0.0000000000000D+00
   246  2.4500000000000D+00  0.0000000000000D+00  0.0000000000000D+00
   247  2.4600000000000D+00  0.0000000000000D+00  0.0000000000000D+00
   248  2.4700000000000D+00  0.0000000000000D+00  0.0000000000000D+00
   249  2.4800000000000D+00  0.0000000000000D+00  0.0000000000000D+00
   250  2.4900000000000D+00  0.0000000000000D+00  0.0000000000000D+00
   251  2.5000000000000D+00  0.0000000000000D+00  0.0000000000000D+00
   252  2.5100000000000D+00  0.0000000000000D+00  0.0000000000000D+00
   253  2.5200000000000D+00  0.0000000000000D+00  0.0000000000000D+00
   254  2.5300000000000D+00  0.0000000000000D+00  0.0000000000000D+00
   255  2.5400000000000D+00  0.0000000000000D+00  0.0000000000000D+00
   256  2.5500000000000D+00  0.0000000000000D+00  0.0000000000000D+00
   257  2.5600000000000D+00  0.0000000000000D+00  0.0000000000000D+00
   258  2.5700000000000D+00  0.0000000000000D+00  0.0000000000000D+00
   259  2.5800000000000D+00  0.0000000000000D+00  0.0000000000000D+00
   260  2.5900000000000D+00  0.0000000000000D+00  0.0000000000000D+00
   261  2.6000000000000D+00  0.0000000000000D+00  0.0000000000000D+00
   262  2.6100000000000D+00  0.0000000000000D+00  0.0000000000000D+00
   263  2.6200000000000D+00  0.0000000000000D+00  0.0000000000000D+00
   264  2.6300000000000D+00  0.0000000000000D+00  0.0000000000000D+00
   265  2.6400000000000D+00  0.0000000000000D+00  0.0000000000000D+00
   266  2.6500000000000D+00  0.0000000000000D+00  0.0000000000000D+00
   267  2.6600000000000D+00  0.0000000000000D+00  0.0000000000000D+00
   268  2.6700000000000D+00  0.0000000000000D+00  0.0000000000000D+00
   269  2.6800000000000D+00  0.0000000000000D+00  0.0000000000000D+00
   270  2.6900000000000D+00  0.0000000000000D+00  0.0000000000000D+00
   271  2.7000000000000D+00  0.0000000000000D+00  0.0000000000000D+00
   272  2.7100000000000D+00  0.0000000000000D+00  0.0000000000000D+00
   273  2.7200000000000D+00  0.0000000000000D+00  0.0000000000000D+00
   274  2.7300000000000D+00  0.0000000000000D+00  0.0000000000000D+00
   275  2.7400000000000D+00  0.0000000000000D+00  0.0000000000000D+00
   276  2.7500000000000D+00  0.0000000000000D+00  0.0000000000000D+00
   277  2.7600000000000D+00  0.0000000000000D+00  0.0000000000000D+00
   278  2.7700000000000D+00  0.0000000000000D+00  0.0000000000000D+00
   279  2.7800000000000D+00  0.0000000000000D+00  0.0000000000000D+00
   280  2.7900000000000D+00  0.0000000000000D+00  0.0000000000000D+00
   281  2.8000000000000D+00  0.0000000000000D+00  0.0000000000000D+00
   282  2.8100000000000D+00  0.0000000000000D+00  0.0000000000000D+00
   283  2.8200000000000D+00  0.0000000000000D+00  0.0000000000000D+00
   284  2.8300000000000D+00  0.0000000000000D+00  0.0000000000000D+00
   285  2.8400000000000D+00  0.0000000000000D+00  0.0000000000000D+00
   286  2.8500000000000D+00  0.0000000000000D+00  0.0000000000000D+00
   287  2.8600000000000D+00  0.0000000000000D+00  0.0000000000000D+00
   288  2.8700000000000D+00  0.0000000000000D+00  0.0000000000000D+00
   289  2.8800000000000D+00  0.0000000000000D+00  0.0000000000000D+00
   290  2.8900000000000D+00  0.0000000000000D+00  0.0000000000000D+00
   291  2.9000000000000D+00  0.0000000000000D+00  0.0000000000000D+00
   292  2.9100000000000D+00  0.0000000000000D+00  0.0000000000000D+00
   293  2.9200000000000D+00  0.0000000000000D+00  0.0000000000000D+00
   294  2.9300000000000D+00  0.0000000000000D+00  0.0000000000000D+00
   295  2.9400000000000D+00  0.0000000000000D+00  0.0000000000000D+00
   296  2.9500000000000D+00  0.0000000000000D+00  0.0000000000000D+00
   297  2.9600000000000D+00  0.0000000000000D+00  0.0000000000000D+00
   298  2.9700000000000D+00  0.0000000000000D+00  0.0000000000000D+00
   299  2.9800000000000D+00  0.0000000000000D+00  0.0000000000000D+00
   300  2.9900000000000D+00  0.0000000000000D+00  0.0000000000000D+00
   301  3.0000000000000D+00  0.0000000000000D+00  0.0000000000000D+00
   302  3.0100000000000D+00  0.0000000000000D+00  0.0000000000000D+00
   303  3.0200000000000D+00  0.0000000000000D+00  0.0000000000000D+00
   304  3.0300000000000D+00  0.0000000000000D+00  0.0000000000000D+00
   305  3.0400000000000D+00  0.0000000000000D+00  0.0000000000000D+00
   306  3.0500000000000D+00  0.0000000000000D+00  0.0000000000000D+00
   307  3.0600000000000D+00  0.0000000000000D+00  0.0000000000000D+00
   308  3.0700000000000D+00  0.0000000000000D+00  0.0000000000000D+00
   309  3.0800000000000D+00  0.0000000000000D+00  0.0000000000000D+00
   310  3.0900000000000D+00  0.0000000000000D+00  0.0000000000000D+00
   311  3.1000000000000D+00  0.0000000000000D+00  0.0000000000000D+00
   312  3.1100000000000D+00  0.0000000000000D+00  0.0000000000000D+00
   313  3.1200000000000D+00  0.0000000000000D+00  0.0000000000000D+00
   314  3.1300000000000D+00  0.0000000000000D+00  0.0000000000000D+00
   315  3.1400000000000D+00  0.0000000000000D+00  0.0000000000000D+00
   316  3.1500000000000D+00  0.0000000000000D+00  0.0000000000000D+00
   317  3.1600000000000D+00  0.0000000000000D+00  0.0000000000000D+00
   318  3.1700000000000D+00  0.0000000000000D+00  0.0000000000000D+00
   319  3.1800000000000D+00  0.0000000000000D+00  0.0000000000000D+00
   320  3.1900000000000D+00  0.0000000000000D+00  0.0000000000000D+00
   321  3.2000000000000D+00  0.0000000000000D+00  0.0000000000000D+00
   322  3.2100000000000D+00  0.0000000000000D+00  0.0000000000000D+00
   323  3.2200000000000D+00  0.0000000000000D+00  0.0000000000000D+00
   324  3.2300000000000D+00  0.0000000000000D+00  0.0000000000000D+00
   325  3.2400000000000D+00  0.0000000000000D+00  0.0000000000000D+00
   326  3.2500000000000D+00  0.0000000000000D+00  0.0000000000000D+00
   327  3.2600000000000D+00  0.0000000000000D+00  0.0000000000000D+00
   328  3.2700000000000D+00  0.0000000000000D+00  0.0000000000000D+00
   329  3.2800000000000D+00  0.0000000000000D+00  0.0000000000000D+00
   330  3.2900000000000D+00  0.0000000000000D+00  0.0000000000000D+00
   331  3.3000000000000D+00  0.0000000000000D+00  0.0000000000000D+00
   332  3.3100000000000D+00  0.0000000000000D+00  0.0000000000000D+00
   333  3.3200000000000D+00  0.0000000000000D+00  0.0000000000000D+00
   334  3.3300000000000D+00  0.0000000000000D+00  0.0000000000000D+00
   335  3.3400000000000D+00  0.0000000000000D+00  0.0000000000000D+00
   336  3.3500000000000D+00  0.0000000000000D+00  0.0000000000000D+00
   337  3.3600000000000D+00  0.0000000000000D+00  0.0000000000000D+00
   338  3.3700000000000D+00  0.0000000000000D+00  0.0000000000000D+00
   339  3.3800000000000D+00  0.0000000000000D+00  0.0000000000000D+00
   340  3.3900000000000D+00  0.0000000000000D+00  0.0000000000000D+00
   341  3.4000000000000D+00  0.0000000000000D+00  0.0000000000000D+00
   342  3.4100000000000D+00  0.0000000000000D+00  0.0000000000000D+00
   343  3.4200000000000D+00  0.0000000000000D+00  0.0000000000000D+00
   344  3.4300000000000D+00  0.0000000000000D+00  0.0000000000000D+00
   345  3.4400000000000D+00  0.0000000000000D+00  0.0000000000000D+00
   346  3.4500000000000D+00  0.0000000000000D+00  0.0000000000000D+00
   347  3.4600000000000D+00  0.0000000000000D+00  0.0000000000000D+00
   348  3.4700000000000D+00  0.0000000000000D+00  0.0000000000000D+00
   349  3.4800000000000D+00  0.0000000000000D+00  0.0000000000000D+00
   350  3.4900000000000D+00  0.0000000000000D+00  0.0000000000000D+00
   351  3.5000000000000D+00  0.0000000000000D+00  0.0000000000000D+00
   352  3.5100000000000D+00  0.0000000000000D+00  0.0000000000000D+00
   353  3.5200000000000D+00  0.0000000000000D+00  0.0000000000000D+00
   354  3.5300000000000D+00  0.0000000000000D+00  0.0000000000000D+00
   355  3.5400000000000D+00  0.0000000000000D+00  0.0000000000000D+00
   356  3.5500000000000D+00  0.0000000000000D+00  0.0000000000000D+00
   357  3.5600000000000D+00  0.0000000000000D+00  0.0000000000000D+00
   358  3.5700000000000D+00  0.0000000000000D+00  0.0000000000000D+00
   359  3.5800000000000D+00  0.0000000000000D+00  0.0000000000000D+00
   360  3.5900000000000D+00  0.0000000000000D+00  0.0000000000000D+00
   361  3.6000000000000D+00  0.0000000000000D+00  0.0000000000000D+00
   362  3.6100000000000D+00  0.0000000000000D+00  0.0000000000000D+00
   363  3.6200000000000D+00  0.0000000000000D+00  0.0000000000000D+00
   364  3.6300000000000D+00  0.0000000000000D+00  0.0000000000000D+00
   365  3.6400000000000D+00  0.0000000000000D+00  0.0000000000000D+00
   366  3.6500000000000D+00  0.0000000000000D+00  0.0000000000000D+00
   367  3.6600000000000D+00  0.0000000000000D+00  0.0000000000000D+00
   368  3.6700000000000D+00  0.0000000000000D+00  0.0000000000000D+00
   369  3.6800000000000D+00  0.0000000000000D+00  0.0000000000000D+00
   370  3.6900000000000D+00  0.0000000000000D+00  0.0000000000000D+00
   371  3.7000000000000D+00  0.0000000000000D+00  0.0000000000000D+00
   372  3.7100000000000D+00  0.0000000000000D+00  0.0000000000000D+00
   373  3.7200000000000D+00  0.0000000000000D+00  0.0000000000000D+00
   374  3.7300000000000D+00  0.0000000000000D+00  0.0000000000000D+00
   375  3.7400000000000D+00  0.0000000000000D+00  0.0000000000000D+00
   376  3.7500000000000D+00  0.0000000000000D+00  0.0000000000000D+00
   377  3.7600000000000D+00  0.0000000000000D+00  0.0000000000000D+00
   378  3.7700000000000D+00  0.0000000000000D+00  0.0000000000000D+00
   379  3.7800000000000D+00  0.0000000000000D+00  0.0000000000000D+00
   380  3.7900000000000D+00  0.0000000000000D+00  0.0000000000000D+00
   381  3.8000000000000D+00  0.0000000000000D+00  0.0000000000000D+00
   382  3.8100000000000D+00  0.0000000000000D+00  0.0000000000000D+00
   383  3.8200000000000D+00  0.0000000000000D+00  0.0000000000000D+00
   384  3.8300000000000D+00  0.0000000000000D+00  0.0000000000000D+00
   385  3.8400000000000D+00  0.0000000000000D+00  0.0000000000000D+00
   386  3.8500000000000D+00  0.0000000000000D+00  0.0000000000000D+00
   387  3.8600000000000D+00  0.0000000000000D+00  0.0000000000000D+00
   388  3.8700000000000D+00  0.0000000000000D+00  0.0000000000000D+00
   389  3.8800000000000D+00  0.0000000000000D+00  0.0000000000000D+00
   390  3.8900000000000D+00  0.0000000000000D+00  0.0000000000000D+00
   391  3.9000000000000D+00  0.0000000000000D+00  0.0000000000000D+00
   392  3.9100000000000D+00  0.0000000000000D+00  0.0000000000000D+00
   393  3.9200000000000D+00  0.0000000000000D+00  0.0000000000000D+00
   394  3.9300000000000D+00  0.0000000000000D+00  0.0000000000000D+00
   395  3.9400000000000D+00  0.0000000000000D+00  0.0000000000000D+00
   396  3.9500000000000D+00  0.0000000000000D+00  0.0000000000000D+00
   397  3.9600000000000D+00  0.0000000000000D+00  0.0000000000000D+00
   398  3.9700000000000D+00  0.0000000000000D+00  0.0000000000000D+00
   399  3.9800000000000D+00  0.0000000000000D+00  0.0000000000000D+00
   400  3.9900000000000D+00  0.0000000000000D+00  0.0000000000000D+00
   401  4.0000000000000D+00  0.0000000000000D+00  0.0000000000000D+00
   402  4.0100000000000D+00  0.0000000000000D+00  0.0000000000000D+00
   403  4.0200000000000D+00  0.0000000000000D+00  0.0000000000000D+00
   404  4.0300000000000D+00  0.0000000000000D+00  0.0000000000000D+00
   405  4.0400000000000D+00  0.0000000000000D+00  0.0000000000000D+00
   406  4.0500000000000D+00  0.0000000000000D+00  0.0000000000000D+00
   407  4.0600000000000D+00  0.0000000000000D+00  0.0000000000000D+00
   408  4.0700000000000D+00  0.0000000000000D+00  0.0000000000000D+00
   409  4.0800000000000D+00  0.0000000000000D+00  0.0000000000000D+00
   410  4.0900000000000D+00  0.0000000000000D+00  0.0000000000000D+00
   411  4.1000000000000D+00  0.0000000000000D+00  0.0000000000000D+00
   412  4.1100000000000D+00  0.0000000000000D+00  0.0000000000000D+00
   413  4.1200000000000D+00  0.0000000000000D+00  0.0000000000000D+00
   414  4.1300000000000D+00  0.0000000000000D+00  0.0000000000000D+00
   415  4.1400000000000D+00  0.0000000000000D+00  0.0000000000000D+00
   416  4.1500000000000D+00  0.0000000000000D+00  0.0000000000000D+00
   417  4.1600000000000D+00  0.0000000000000D+00  0.0000000000000D+00
   418  4.1700000000000D+00  0.0000000000000D+00  0.0000000000000D+00
   419  4.1800000000000D+00  0.0000000000000D+00  0.0000000000000D+00
   420  4.1900000000000D+00  0.0000000000000D+00  0.0000000000000D+00
   421  4.2000000000000D+00  0.0000000000000D+00  0.0000000000000D+00
   422  4.2100000000000D+00  0.0000000000000D+00  0.0000000000000D+00