Cu    ONCVPSP-3.3.0  r_core=   1.20324   1.30802   1.60208
     29.0000     19.0000      220408    zatom,zion,pspd
     8       2   2     4   600     0    pspcod,pspxc,lmax,lloc,mmax,r2well
  5.99000000  0.00000000  0.00000000    rchrg fchrg qchrg
     2     2     2     0     0    nproj
     1     1           extension_switch
   0                         6.1186735125192D+00 -4.9052688562404D-01
     1  0.0000000000000D+00 -4.8753793224776D-09 -1.4686421051513D-08
     2  1.0000000000000D-02  1.1294285613694D-01  3.4593443858319D-02
     3  2.0000000000000D-02  2.2536001310103D-01  6.8821388348828D-02
     4  3.0000000000000D-02  3.3673018773044D-01  1.0232649890364D-01
     5  4.0000000000000D-02  4.4654086289539D-01  1.3476759103066D-01
     6  5.0000000000000D-02  5.5429250682390D-01  1.6582726041504D-01
     7  6.0000000000000D-02  6.5950259956886D-01  1.9521898986163D-01
     8  7.0000000000000D-02  7.6170940820101D-01  2.2269357638896D-01
     9  8.0000000000000D-02  8.6047545718753D-01  2.4804473647219D-01
    10  9.0000000000000D-02  9.5539064631828D-01  2.7111376519864D-01
    11  1.0000000000000D-01  1.0460749753490D+00  2.9179314557059D-01
    12  1.1000000000000D-01  1.1321808421017D+00  3.1002902693039D-01
    13  1.2000000000000D-01  1.2133948889415D+00  3.2582251601141D-01
    14  1.3000000000000D-01  1.2894393811640D+00  3.3922974991260D-01
    15  1.4000000000000D-01  1.3600731097068D+00  3.5036074680570D-01
    16  1.5000000000000D-01  1.4250918195473D+00  3.5937705684698D-01
    17  1.6000000000000D-01  1.4843281739947D+00  3.6648826200921D-01
    18  1.7000000000000D-01  1.5376512736334D+00  3.7194739881158D-01
    19  1.8000000000000D-01  1.5849657567579D+00  3.7604540166187D-01
    20  1.9000000000000D-01  1.6262105155838D+00  3.7910468622239D-01
    21  2.0000000000000D-01  1.6613570691743D+00  3.8147201139843D-01
    22  2.1000000000000D-01  1.6904076397527D+00  3.8351077480322D-01
    23  2.2000000000000D-01  1.7133929837522D+00  3.8559290951826D-01
    24  2.3000000000000D-01  1.7303700324990D+00  3.8809055935020D-01
    25  2.4000000000000D-01  1.7414193997562D+00  3.9136771536785D-01
    26  2.5000000000000D-01  1.7466428144283D+00  3.9577199814976D-01
    27  2.6000000000000D-01  1.7461605365237D+00  4.0162676782752D-01
    28  2.7000000000000D-01  1.7401088129989D+00  4.0922373770549D-01
    29  2.8000000000000D-01  1.7286374274022D+00  4.1881625708569D-01
    30  2.9000000000000D-01  1.7119073933545D+00  4.3061341512621D-01
    31  3.0000000000000D-01  1.6900888369420D+00  4.4477510038681D-01
    32  3.1000000000000D-01  1.6633591071551D+00  4.6140813051636D-01
    33  3.2000000000000D-01  1.6319011467273D+00  4.8056354372736D-01
    34  3.3000000000000D-01  1.5959021482515D+00  5.0223511875839D-01
    35  3.4000000000000D-01  1.5555525124533D+00  5.2635916346645D-01
    36  3.5000000000000D-01  1.5110451171492D+00  5.5281558457886D-01
    37  3.6000000000000D-01  1.4625748969094D+00  5.8143022305401D-01
    38  3.7000000000000D-01  1.4103387249647D+00  6.1197841155432D-01
    39  3.8000000000000D-01  1.3545355806330D+00  6.4418968332219D-01
    40  3.9000000000000D-01  1.2953669776951D+00  6.7775353586557D-01
    41  4.0000000000000D-01  1.2330376218802D+00  7.1232612886829D-01
    42  4.1000000000000D-01  1.1677562591182D+00  7.4753777417403D-01
    43  4.2000000000000D-01  1.0997366706161D+00  7.8300105703753D-01
    44  4.3000000000000D-01  1.0291987662595D+00  8.1831941251590D-01
    45  4.4000000000000D-01  9.5636972444403D-01  8.5309596924832D-01
    46  4.5000000000000D-01  8.8148512427796D-01  8.8694246522446D-01
    47  4.6000000000000D-01  8.0479001525086D-01  9.1948803667395D-01
    48  4.7000000000000D-01  7.2653986994075D-01  9.5038768203284D-01
    49  4.8000000000000D-01  6.4700136715995D-01  9.7933020808211D-01
    50  4.9000000000000D-01  5.6645295607784D-01  1.0060454747387D+00
    51  5.0000000000000D-01  4.8518515625977D-01  1.0303107684546D+00
    52  5.1000000000000D-01  4.0350055413693D-01  1.0519561514834D+00
    53  5.2000000000000D-01  3.2171346306803D-01  1.0708686550944D+00
    54  5.3000000000000D-01  2.4014922173309D-01  1.0869952087293D+00
    55  5.4000000000000D-01  1.5914311394542D-01  1.1003442235969D+00
    56  5.5000000000000D-01  7.9038901930142D-02  1.1109857778215D+00
    57  5.6000000000000D-01  1.8697447310239D-04  1.1190503803211D+00
    58  5.7000000000000D-01 -7.7057879092016D-02  1.1247263215001D+00
    59  5.8000000000000D-01 -1.5233904851667D-01  1.1282556500053D+00
    60  5.9000000000000D-01 -2.2530100602361D-01  1.1299288453837D+00
    61  6.0000000000000D-01 -2.9559249464275D-01  1.1300782860728D+00
    62  6.1000000000000D-01 -3.6286995443154D-01  1.1290706398401D+00
    63  6.2000000000000D-01 -4.2680113205234D-01  1.1272983291816D+00
    64  6.3000000000000D-01 -4.8706881273343D-01  1.1251702465924D+00
    65  6.4000000000000D-01 -5.4337460837878D-01  1.1231019134992D+00
    66  6.5000000000000D-01 -5.9544273160313D-01  1.1215052917174D+00
    67  6.6000000000000D-01 -6.4302368293299D-01  1.1207784669602D+00
    68  6.7000000000000D-01 -6.8589777735241D-01  1.1212954301069D+00
    69  6.8000000000000D-01 -7.2387843687483D-01  1.1233961833413D+00
    70  6.9000000000000D-01 -7.5681517790138D-01  1.1273773948055D+00
    71  7.0000000000000D-01 -7.8459622573980D-01  1.1334838171936D+00
    72  7.1000000000000D-01 -8.0715069380952D-01  1.1419006727084D+00
    73  7.2000000000000D-01 -8.2445027162842D-01  1.1527471893405D+00
    74  7.3000000000000D-01 -8.3651037355772D-01  1.1660714518102D+00
    75  7.4000000000000D-01 -8.4339070936653D-01  1.1818467050530D+00
    76  7.5000000000000D-01 -8.4519524771835D-01  1.1999692195444D+00
    77  7.6000000000000D-01 -8.4207155460865D-01  1.2202577962646D+00
    78  7.7000000000000D-01 -8.3420950026787D-01  1.2424549556613D+00
    79  7.8000000000000D-01 -8.2183933991254D-01  1.2662298201039D+00
    80  7.9000000000000D-01 -8.0522918574414D-01  1.2911826637510D+00
    81  8.0000000000000D-01 -7.8468189949597D-01  1.3168510682476D+00
    82  8.1000000000000D-01 -7.6053144637613D-01  1.3427175879743D+00
    83  8.2000000000000D-01 -7.3313876220286D-01  1.3682187954088D+00
    84  8.3000000000000D-01 -7.0288719564507D-01  1.3927555462637D+00
    85  8.4000000000000D-01 -6.7017759654480D-01  1.4157042760877D+00
    86  8.5000000000000D-01 -6.3542312910916D-01  1.4364291155971D+00
    87  8.6000000000000D-01 -5.9904389513936D-01  1.4542945916803D+00
    88  8.7000000000000D-01 -5.6146145726343D-01  1.4686786652650D+00
    89  8.8000000000000D-01 -5.2309335523721D-01  1.4789858464376D+00
    90  8.9000000000000D-01 -4.8434770969037D-01  1.4846601216357D+00
    91  9.0000000000000D-01 -4.4561800716890D-01  1.4851974275668D+00
    92  9.1000000000000D-01 -4.0727815795122D-01  1.4801574118130D+00
    93  9.2000000000000D-01 -3.6967791391593D-01  1.4691742307994D+00
    94  9.3000000000000D-01 -3.3313872777833D-01  1.4519661517741D+00
    95  9.4000000000000D-01 -2.9795012738943D-01  1.4283437463962D+00
    96  9.5000000000000D-01 -2.6436666964041D-01  1.3982164890709D+00
    97  9.6000000000000D-01 -2.3260552800415D-01  1.3615976028240D+00
    98  9.7000000000000D-01 -2.0284475609051D-01  1.3186070286525D+00
    99  9.8000000000000D-01 -1.7522225688052D-01  1.2694724306556D+00
   100  9.9000000000000D-01 -1.4983547413417D-01  1.2145281871179D+00
   101  1.0000000000000D+00 -1.2674180871219D-01  1.1542123574080D+00
   102  1.0100000000000D+00 -1.0595974842898D-01  1.0890616554666D+00
   103  1.0200000000000D+00 -8.7470686481801D-02  1.0197045000799D+00
   104  1.0300000000000D+00 -7.1221389984833D-02  9.4685225149776D-01
   105  1.0400000000000D+00 -5.7127067369238D-02  8.7128878122074D-01
   106  1.0500000000000D+00 -4.5074971466353D-02  7.9385855673411D-01
   107  1.0600000000000D+00 -3.4928464961992D-02  7.1545345265147D-01
   108  1.0700000000000D+00 -2.6531464668445D-02  6.3699852983075D-01
   109  1.0800000000000D+00 -1.9713174117185D-02  5.5943704448975D-01
   110  1.0900000000000D+00 -1.4293007633358D-02  4.8371496809045D-01
   111  1.1000000000000D+00 -1.0085605197392D-02  4.1076531023654D-01
   112  1.1100000000000D+00 -6.9058349169186D-03  3.4149254426968D-01
   113  1.1200000000000D+00 -4.5736799022283D-03  2.7675743554702D-01
   114  1.1300000000000D+00 -2.9189081676765D-03  2.1736256716836D-01
   115  1.1400000000000D+00 -1.7854289747608D-03  1.6403884404060D-01
   116  1.1500000000000D+00 -1.0352424072163D-03  1.1743324638143D-01
   117  1.1600000000000D+00 -5.5189928063116D-04  7.8098073682354D-02
   118  1.1700000000000D+00 -2.4337362045536D-04  4.6499581940882D-02
   119  1.1800000000000D+00 -4.5658798355685D-05  2.2820419397858D-02
   120  1.1900000000000D+00  8.3694705548027D-05  7.7079419560821D-03
   121  1.2000000000000D+00  1.5063693299509D-04  1.1195690789224D-03
   122  1.2100000000000D+00  8.3542292876540D-05 -2.4834067528450D-04
   123  1.2200000000000D+00 -1.0536634973421D-05  5.6167455691659D-05
   124  1.2300000000000D+00 -6.4828301855346D-06  4.2836287406294D-05
   125  1.2400000000000D+00  3.6591396687893D-06 -1.6748281062110D-05
   126  1.2500000000000D+00 -2.6559536161141D-07 -5.4925320590833D-07
   127  1.2600000000000D+00 -1.6304362201035D-07 -3.3717543690810D-07
   128  1.2700000000000D+00  0.0000000000000D+00  0.0000000000000D+00
   129  1.2800000000000D+00  0.0000000000000D+00  0.0000000000000D+00
   130  1.2900000000000D+00  0.0000000000000D+00  0.0000000000000D+00
   131  1.3000000000000D+00  0.0000000000000D+00  0.0000000000000D+00
   132  1.3100000000000D+00  0.0000000000000D+00  0.0000000000000D+00
   133  1.3200000000000D+00  0.0000000000000D+00  0.0000000000000D+00
   134  1.3300000000000D+00  0.0000000000000D+00  0.0000000000000D+00
   135  1.3400000000000D+00  0.0000000000000D+00  0.0000000000000D+00
   136  1.3500000000000D+00  0.0000000000000D+00  0.0000000000000D+00
   137  1.3600000000000D+00  0.0000000000000D+00  0.0000000000000D+00
   138  1.3700000000000D+00  0.0000000000000D+00  0.0000000000000D+00
   139  1.3800000000000D+00  0.0000000000000D+00  0.0000000000000D+00
   140  1.3900000000000D+00  0.0000000000000D+00  0.0000000000000D+00
   141  1.4000000000000D+00  0.0000000000000D+00  0.0000000000000D+00
   142  1.4100000000000D+00  0.0000000000000D+00  0.0000000000000D+00
   143  1.4200000000000D+00  0.0000000000000D+00  0.0000000000000D+00
   144  1.4300000000000D+00  0.0000000000000D+00  0.0000000000000D+00
   145  1.4400000000000D+00  0.0000000000000D+00  0.0000000000000D+00
   146  1.4500000000000D+00  0.0000000000000D+00  0.0000000000000D+00
   147  1.4600000000000D+00  0.0000000000000D+00  0.0000000000000D+00
   148  1.4700000000000D+00  0.0000000000000D+00  0.0000000000000D+00
   149  1.4800000000000D+00  0.0000000000000D+00  0.0000000000000D+00
   150  1.4900000000000D+00  0.0000000000000D+00  0.0000000000000D+00
   151  1.5000000000000D+00  0.0000000000000D+00  0.0000000000000D+00
   152  1.5100000000000D+00  0.0000000000000D+00  0.0000000000000D+00
   153  1.5200000000000D+00  0.0000000000000D+00  0.0000000000000D+00
   154  1.5300000000000D+00  0.0000000000000D+00  0.0000000000000D+00
   155  1.5400000000000D+00  0.0000000000000D+00  0.0000000000000D+00
   156  1.5500000000000D+00  0.0000000000000D+00  0.0000000000000D+00
   157  1.5600000000000D+00  0.0000000000000D+00  0.0000000000000D+00
   158  1.5700000000000D+00  0.0000000000000D+00  0.0000000000000D+00
   159  1.5800000000000D+00  0.0000000000000D+00  0.0000000000000D+00
   160  1.5900000000000D+00  0.0000000000000D+00  0.0000000000000D+00
   161  1.6000000000000D+00  0.0000000000000D+00  0.0000000000000D+00
   162  1.6100000000000D+00  0.0000000000000D+00  0.0000000000000D+00
   163  1.6200000000000D+00  0.0000000000000D+00  0.0000000000000D+00
   164  1.6300000000000D+00  0.0000000000000D+00  0.0000000000000D+00
   165  1.6400000000000D+00  0.0000000000000D+00  0.0000000000000D+00
   166  1.6500000000000D+00  0.0000000000000D+00  0.0000000000000D+00
   167  1.6600000000000D+00  0.0000000000000D+00  0.0000000000000D+00
   168  1.6700000000000D+00  0.0000000000000D+00  0.0000000000000D+00
   169  1.6800000000000D+00  0.0000000000000D+00  0.0000000000000D+00
   170  1.6900000000000D+00  0.0000000000000D+00  0.0000000000000D+00
   171  1.7000000000000D+00  0.0000000000000D+00  0.0000000000000D+00
   172  1.7100000000000D+00  0.0000000000000D+00  0.0000000000000D+00
   173  1.7200000000000D+00  0.0000000000000D+00  0.0000000000000D+00
   174  1.7300000000000D+00  0.0000000000000D+00  0.0000000000000D+00
   175  1.7400000000000D+00  0.0000000000000D+00  0.0000000000000D+00
   176  1.7500000000000D+00  0.0000000000000D+00  0.0000000000000D+00
   177  1.7600000000000D+00  0.0000000000000D+00  0.0000000000000D+00
   178  1.7700000000000D+00  0.0000000000000D+00  0.0000000000000D+00
   179  1.7800000000000D+00  0.0000000000000D+00  0.0000000000000D+00
   180  1.7900000000000D+00  0.0000000000000D+00  0.0000000000000D+00
   181  1.8000000000000D+00  0.0000000000000D+00  0.0000000000000D+00
   182  1.8100000000000D+00  0.0000000000000D+00  0.0000000000000D+00
   183  1.8200000000000D+00  0.0000000000000D+00  0.0000000000000D+00
   184  1.8300000000000D+00  0.0000000000000D+00  0.0000000000000D+00
   185  1.8400000000000D+00  0.0000000000000D+00  0.0000000000000D+00
   186  1.8500000000000D+00  0.0000000000000D+00  0.0000000000000D+00
   187  1.8600000000000D+00  0.0000000000000D+00  0.0000000000000D+00
   188  1.8700000000000D+00  0.0000000000000D+00  0.0000000000000D+00
   189  1.8800000000000D+00  0.0000000000000D+00  0.0000000000000D+00
   190  1.8900000000000D+00  0.0000000000000D+00  0.0000000000000D+00
   191  1.9000000000000D+00  0.0000000000000D+00  0.0000000000000D+00
   192  1.9100000000000D+00  0.0000000000000D+00  0.0000000000000D+00
   193  1.9200000000000D+00  0.0000000000000D+00  0.0000000000000D+00
   194  1.9300000000000D+00  0.0000000000000D+00  0.0000000000000D+00
   195  1.9400000000000D+00  0.0000000000000D+00  0.0000000000000D+00
   196  1.9500000000000D+00  0.0000000000000D+00  0.0000000000000D+00
   197  1.9600000000000D+00  0.0000000000000D+00  0.0000000000000D+00
   198  1.9700000000000D+00  0.0000000000000D+00  0.0000000000000D+00
   199  1.9800000000000D+00  0.0000000000000D+00  0.0000000000000D+00
   200  1.9900000000000D+00  0.0000000000000D+00  0.0000000000000D+00
   201  2.0000000000000D+00  0.0000000000000D+00  0.0000000000000D+00
   202  2.0100000000000D+00  0.0000000000000D+00  0.0000000000000D+00
   203  2.0200000000000D+00  0.0000000000000D+00  0.0000000000000D+00
   204  2.0300000000000D+00  0.0000000000000D+00  0.0000000000000D+00
   205  2.0400000000000D+00  0.0000000000000D+00  0.0000000000000D+00
   206  2.0500000000000D+00  0.0000000000000D+00  0.0000000000000D+00
   207  2.0600000000000D+00  0.0000000000000D+00  0.0000000000000D+00
   208  2.0700000000000D+00  0.0000000000000D+00  0.0000000000000D+00
   209  2.0800000000000D+00  0.0000000000000D+00  0.0000000000000D+00
   210  2.0900000000000D+00  0.0000000000000D+00  0.0000000000000D+00
   211  2.1000000000000D+00  0.0000000000000D+00  0.0000000000000D+00
   212  2.1100000000000D+00  0.0000000000000D+00  0.0000000000000D+00
   213  2.1200000000000D+00  0.0000000000000D+00  0.0000000000000D+00
   214  2.1300000000000D+00  0.0000000000000D+00  0.0000000000000D+00
   215  2.1400000000000D+00  0.0000000000000D+00  0.0000000000000D+00
   216  2.1500000000000D+00  0.0000000000000D+00  0.0000000000000D+00
   217  2.1600000000000D+00  0.0000000000000D+00  0.0000000000000D+00
   218  2.1700000000000D+00  0.0000000000000D+00  0.0000000000000D+00
   219  2.1800000000000D+00  0.0000000000000D+00  0.0000000000000D+00
   220  2.1900000000000D+00  0.0000000000000D+00  0.0000000000000D+00
   221  2.2000000000000D+00  0.0000000000000D+00  0.0000000000000D+00
   222  2.2100000000000D+00  0.0000000000000D+00  0.0000000000000D+00
   223  2.2200000000000D+00  0.0000000000000D+00  0.0000000000000D+00
   224  2.2300000000000D+00  0.0000000000000D+00  0.0000000000000D+00
   225  2.2400000000000D+00  0.0000000000000D+00  0.0000000000000D+00
   226  2.2500000000000D+00  0.0000000000000D+00  0.0000000000000D+00
   227  2.2600000000000D+00  0.0000000000000D+00  0.0000000000000D+00
   228  2.2700000000000D+00  0.0000000000000D+00  0.0000000000000D+00
   229  2.2800000000000D+00  0.0000000000000D+00  0.0000000000000D+00
   230  2.2900000000000D+00  0.0000000000000D+00  0.0000000000000D+00
   231  2.3000000000000D+00  0.0000000000000D+00  0.0000000000000D+00
   232  2.3100000000000D+00  0.0000000000000D+00  0.0000000000000D+00
   233  2.3200000000000D+00  0.0000000000000D+00  0.0000000000000D+00
   234  2.3300000000000D+00  0.0000000000000D+00  0.0000000000000D+00
   235  2.3400000000000D+00  0.0000000000000D+00  0.0000000000000D+00
   236  2.3500000000000D+00  0.0000000000000D+00  0.0000000000000D+00
   237  2.3600000000000D+00  0.0000000000000D+00  0.0000000000000D+00
   238  2.3700000000000D+00  0.0000000000000D+00  0.0000000000000D+00
   239  2.3800000000000D+00  0.0000000000000D+00  0.0000000000000D+00
   240  2.3900000000000D+00  0.0000000000000D+00  0.0000000000000D+00
   241  2.4000000000000D+00  0.0000000000000D+00  0.0000000000000D+00
   242  2.4100000000000D+00  0.0000000000000D+00  0.0000000000000D+00
   243  2.4200000000000D+00  0.0000000000000D+00  0.0000000000000D+00
   244  2.4300000000000D+00  0.0000000000000D+00  0.0000000000000D+00
   245  2.4400000000000D+00  0.0000000000000D+00  0.0000000000000D+00
   246  2.4500000000000D+00  0.0000000000000D+00  0.0000000000000D+00
   247  2.4600000000000D+00  0.0000000000000D+00  0.0000000000000D+00
   248  2.4700000000000D+00  0.0000000000000D+00  0.0000000000000D+00
   249  2.4800000000000D+00  0.0000000000000D+00  0.0000000000000D+00
   250  2.4900000000000D+00  0.0000000000000D+00  0.0000000000000D+00
   251  2.5000000000000D+00  0.0000000000000D+00  0.0000000000000D+00
   252  2.5100000000000D+00  0.0000000000000D+00  0.0000000000000D+00
   253  2.5200000000000D+00  0.0000000000000D+00  0.0000000000000D+00
   254  2.5300000000000D+00  0.0000000000000D+00  0.0000000000000D+00
   255  2.5400000000000D+00  0.0000000000000D+00  0.0000000000000D+00
   256  2.5500000000000D+00  0.0000000000000D+00  0.0000000000000D+00
   257  2.5600000000000D+00  0.0000000000000D+00  0.0000000000000D+00
   258  2.5700000000000D+00  0.0000000000000D+00  0.0000000000000D+00
   259  2.5800000000000D+00  0.0000000000000D+00  0.0000000000000D+00
   260  2.5900000000000D+00  0.0000000000000D+00  0.0000000000000D+00
   261  2.6000000000000D+00  0.0000000000000D+00  0.0000000000000D+00
   262  2.6100000000000D+00  0.0000000000000D+00  0.0000000000000D+00
   263  2.6200000000000D+00  0.0000000000000D+00  0.0000000000000D+00
   264  2.6300000000000D+00  0.0000000000000D+00  0.0000000000000D+00
   265  2.6400000000000D+00  0.0000000000000D+00  0.0000000000000D+00
   266  2.6500000000000D+00  0.0000000000000D+00  0.0000000000000D+00
   267  2.6600000000000D+00  0.0000000000000D+00  0.0000000000000D+00
   268  2.6700000000000D+00  0.0000000000000D+00  0.0000000000000D+00
   269  2.6800000000000D+00  0.0000000000000D+00  0.0000000000000D+00
   270  2.6900000000000D+00  0.0000000000000D+00  0.0000000000000D+00
   271  2.7000000000000D+00  0.0000000000000D+00  0.0000000000000D+00
   272  2.7100000000000D+00  0.0000000000000D+00  0.0000000000000D+00
   273  2.7200000000000D+00  0.0000000000000D+00  0.0000000000000D+00
   274  2.7300000000000D+00  0.0000000000000D+00  0.0000000000000D+00
   275  2.7400000000000D+00  0.0000000000000D+00  0.0000000000000D+00
   276  2.7500000000000D+00  0.0000000000000D+00  0.0000000000000D+00
   277  2.7600000000000D+00  0.0000000000000D+00  0.0000000000000D+00
   278  2.7700000000000D+00  0.0000000000000D+00  0.0000000000000D+00
   279  2.7800000000000D+00  0.0000000000000D+00  0.0000000000000D+00
   280  2.7900000000000D+00  0.0000000000000D+00  0.0000000000000D+00
   281  2.8000000000000D+00  0.0000000000000D+00  0.0000000000000D+00
   282  2.8100000000000D+00  0.0000000000000D+00  0.0000000000000D+00
   283  2.8200000000000D+00  0.0000000000000D+00  0.0000000000000D+00
   284  2.8300000000000D+00  0.0000000000000D+00  0.0000000000000D+00
   285  2.8400000000000D+00  0.0000000000000D+00  0.0000000000000D+00
   286  2.8500000000000D+00  0.0000000000000D+00  0.0000000000000D+00
   287  2.8600000000000D+00  0.0000000000000D+00  0.0000000000000D+00
   288  2.8700000000000D+00  0.0000000000000D+00  0.0000000000000D+00
   289  2.8800000000000D+00  0.0000000000000D+00  0.0000000000000D+00
   290  2.8900000000000D+00  0.0000000000000D+00  0.0000000000000D+00
   291  2.9000000000000D+00  0.0000000000000D+00  0.0000000000000D+00
   292  2.9100000000000D+00  0.0000000000000D+00  0.0000000000000D+00
   293  2.9200000000000D+00  0.0000000000000D+00  0.0000000000000D+00
   294  2.9300000000000D+00  0.0000000000000D+00  0.0000000000000D+00
   295  2.9400000000000D+00  0.0000000000000D+00  0.0000000000000D+00
   296  2.9500000000000D+00  0.0000000000000D+00  0.0000000000000D+00
   297  2.9600000000000D+00  0.0000000000000D+00  0.0000000000000D+00
   298  2.9700000000000D+00  0.0000000000000D+00  0.0000000000000D+00
   299  2.9800000000000D+00  0.0000000000000D+00  0.0000000000000D+00
   300  2.9900000000000D+00  0.0000000000000D+00  0.0000000000000D+00
   301  3.0000000000000D+00  0.0000000000000D+00  0.0000000000000D+00
   302  3.0100000000000D+00  0.0000000000000D+00  0.0000000000000D+00
   303  3.0200000000000D+00  0.0000000000000D+00  0.0000000000000D+00
   304  3.0300000000000D+00  0.0000000000000D+00  0.0000000000000D+00
   305  3.0400000000000D+00  0.0000000000000D+00  0.0000000000000D+00
   306  3.0500000000000D+00  0.0000000000000D+00  0.0000000000000D+00
   307  3.0600000000000D+00  0.0000000000000D+00  0.0000000000000D+00
   308  3.0700000000000D+00  0.0000000000000D+00  0.0000000000000D+00
   309  3.0800000000000D+00  0.0000000000000D+00  0.0000000000000D+00
   310  3.0900000000000D+00  0.0000000000000D+00  0.0000000000000D+00
   311  3.1000000000000D+00  0.0000000000000D+00  0.0000000000000D+00
   312  3.1100000000000D+00  0.0000000000000D+00  0.0000000000000D+00
   313  3.1200000000000D+00  0.0000000000000D+00  0.0000000000000D+00
   314  3.1300000000000D+00  0.0000000000000D+00  0.0000000000000D+00
   315  3.1400000000000D+00  0.0000000000000D+00  0.0000000000000D+00
   316  3.1500000000000D+00  0.0000000000000D+00  0.0000000000000D+00
   317  3.1600000000000D+00  0.0000000000000D+00  0.0000000000000D+00
   318  3.1700000000000D+00  0.0000000000000D+00  0.0000000000000D+00
   319  3.1800000000000D+00  0.0000000000000D+00  0.0000000000000D+00
   320  3.1900000000000D+00  0.0000000000000D+00  0.0000000000000D+00
   321  3.2000000000000D+00  0.0000000000000D+00  0.0000000000000D+00
   322  3.2100000000000D+00  0.0000000000000D+00  0.0000000000000D+00
   323  3.2200000000000D+00  0.0000000000000D+00  0.0000000000000D+00
   324  3.2300000000000D+00  0.0000000000000D+00  0.0000000000000D+00
   325  3.2400000000000D+00  0.0000000000000D+00  0.0000000000000D+00
   326  3.2500000000000D+00  0.0000000000000D+00  0.0000000000000D+00
   327  3.2600000000000D+00  0.0000000000000D+00  0.0000000000000D+00
   328  3.2700000000000D+00  0.0000000000000D+00  0.0000000000000D+00
   329  3.2800000000000D+00  0.0000000000000D+00  0.0000000000000D+00
   330  3.2900000000000D+00  0.0000000000000D+00  0.0000000000000D+00
   331  3.3000000000000D+00  0.0000000000000D+00  0.0000000000000D+00
   332  3.3100000000000D+00  0.0000000000000D+00  0.0000000000000D+00
   333  3.3200000000000D+00  0.0000000000000D+00  0.0000000000000D+00
   334  3.3300000000000D+00  0.0000000000000D+00  0.0000000000000D+00
   335  3.3400000000000D+00  0.0000000000000D+00  0.0000000000000D+00
   336  3.3500000000000D+00  0.0000000000000D+00  0.0000000000000D+00
   337  3.3600000000000D+00  0.0000000000000D+00  0.0000000000000D+00
   338  3.3700000000000D+00  0.0000000000000D+00  0.0000000000000D+00
   339  3.3800000000000D+00  0.0000000000000D+00  0.0000000000000D+00
   340  3.3900000000000D+00  0.0000000000000D+00  0.0000000000000D+00
   341  3.4000000000000D+00  0.0000000000000D+00  0.0000000000000D+00
   342  3.4100000000000D+00  0.0000000000000D+00  0.0000000000000D+00
   343  3.4200000000000D+00  0.0000000000000D+00  0.0000000000000D+00
   344  3.4300000000000D+00  0.0000000000000D+00  0.0000000000000D+00
   345  3.4400000000000D+00  0.0000000000000D+00  0.0000000000000D+00
   346  3.4500000000000D+00  0.0000000000000D+00  0.0000000000000D+00
   347  3.4600000000000D+00  0.0000000000000D+00  0.0000000000000D+00
   348  3.4700000000000D+00  0.0000000000000D+00  0.0000000000000D+00
   349  3.4800000000000D+00  0.0000000000000D+00  0.0000000000000D+00
   350  3.4900000000000D+00  0.0000000000000D+00  0.0000000000000D+00
   351  3.5000000000000D+00  0.0000000000000D+00  0.0000000000000D+00
   352  3.5100000000000D+00  0.0000000000000D+00  0.0000000000000D+00
   353  3.5200000000000D+00  0.0000000000000D+00  0.0000000000000D+00
   354  3.5300000000000D+00  0.0000000000000D+00  0.0000000000000D+00
   355  3.5400000000000D+00  0.0000000000000D+00  0.0000000000000D+00
   356  3.5500000000000D+00  0.0000000000000D+00  0.0000000000000D+00
   357  3.5600000000000D+00  0.0000000000000D+00  0.0000000000000D+00
   358  3.5700000000000D+00  0.0000000000000D+00  0.0000000000000D+00
   359  3.5800000000000D+00  0.0000000000000D+00  0.0000000000000D+00
   360  3.5900000000000D+00  0.0000000000000D+00  0.0000000000000D+00
   361  3.6000000000000D+00  0.0000000000000D+00  0.0000000000000D+00
   362  3.6100000000000D+00  0.0000000000000D+00  0.0000000000000D+00
   363  3.6200000000000D+00  0.0000000000000D+00  0.0000000000000D+00
   364  3.6300000000000D+00  0.0000000000000D+00  0.0000000000000D+00
   365  3.6400000000000D+00  0.0000000000000D+00  0.0000000000000D+00
   366  3.6500000000000D+00  0.0000000000000D+00  0.0000000000000D+00
   367  3.6600000000000D+00  0.0000000000000D+00  0.0000000000000D+00
   368  3.6700000000000D+00  0.0000000000000D+00  0.0000000000000D+00
   369  3.6800000000000D+00  0.0000000000000D+00  0.0000000000000D+00
   370  3.6900000000000D+00  0.0000000000000D+00  0.0000000000000D+00
   371  3.7000000000000D+00  0.0000000000000D+00  0.0000000000000D+00
   372  3.7100000000000D+00  0.0000000000000D+00  0.0000000000000D+00
   373  3.7200000000000D+00  0.0000000000000D+00  0.0000000000000D+00
   374  3.7300000000000D+00  0.0000000000000D+00  0.0000000000000D+00
   375  3.7400000000000D+00  0.0000000000000D+00  0.0000000000000D+00
   376  3.7500000000000D+00  0.0000000000000D+00  0.0000000000000D+00
   377  3.7600000000000D+00  0.0000000000000D+00  0.0000000000000D+00
   378  3.7700000000000D+00  0.0000000000000D+00  0.0000000000000D+00
   379  3.7800000000000D+00  0.0000000000000D+00  0.0000000000000D+00
   380  3.7900000000000D+00  0.0000000000000D+00  0.0000000000000D+00
   381  3.8000000000000D+00  0.0000000000000D+00  0.0000000000000D+00
   382  3.8100000000000D+00  0.0000000000000D+00  0.0000000000000D+00
   383  3.8200000000000D+00  0.0000000000000D+00  0.0000000000000D+00
   384  3.8300000000000D+00  0.0000000000000D+00  0.0000000000000D+00
   385  3.8400000000000D+00  0.0000000000000D+00  0.0000000000000D+00
   386  3.8500000000000D+00  0.0000000000000D+00  0.0000000000000D+00
   387  3.8600000000000D+00  0.0000000000000D+00  0.0000000000000D+00
   388  3.8700000000000D+00  0.0000000000000D+00  0.0000000000000D+00
   389  3.8800000000000D+00  0.0000000000000D+00  0.0000000000000D+00
   390  3.8900000000000D+00  0.0000000000000D+00  0.0000000000000D+00
   391  3.9000000000000D+00  0.0000000000000D+00  0.0000000000000D+00
   392  3.9100000000000D+00  0.0000000000000D+00  0.0000000000000D+00
   393  3.9200000000000D+00  0.0000000000000D+00  0.0000000000000D+00
   394  3.9300000000000D+00  0.0000000000000D+00  0.0000000000000D+00
   395  3.9400000000000D+00  0.0000000000000D+00  0.0000000000000D+00
   396  3.9500000000000D+00  0.0000000000000D+00  0.0000000000000D+00
   397  3.9600000000000D+00  0.0000000000000D+00  0.0000000000000D+00
   398  3.9700000000000D+00  0.0000000000000D+00  0.0000000000000D+00
   399  3.9800000000000D+00  0.0000000000000D+00  0.0000000000000D+00
   400  3.9900000000000D+00  0.0000000000000D+00  0.0000000000000D+00
   401  4.0000000000000D+00  0.0000000000000D+00  0.0000000000000D+00
   402  4.0100000000000D+00  0.0000000000000D+00  0.0000000000000D+00
   403  4.0200000000000D+00  0.0000000000000D+00  0.0000000000000D+00
   404  4.0300000000000D+00  0.0000000000000D+00  0.0000000000000D+00
   405  4.0400000000000D+00  0.0000000000000D+00  0.0000000000000D+00
   406  4.0500000000000D+00  0.0000000000000D+00  0.0000000000000D+00
   407  4.0600000000000D+00  0.0000000000000D+00  0.0000000000000D+00
   408  4.0700000000000D+00  0.0000000000000D+00  0.0000000000000D+00
   409  4.0800000000000D+00  0.0000000000000D+00  0.0000000000000D+00
   410  4.0900000000000D+00  0.0000000000000D+00  0.0000000000000D+00
   411  4.1000000000000D+00  0.0000000000000D+00  0.0000000000000D+00
   412  4.1100000000000D+00  0.0000000000000D+00  0.0000000000000D+00
   413  4.1200000000000D+00  0.0000000000000D+00  0.0000000000000D+00
   414  4.1300000000000D+00  0.0000000000000D+00  0.0000000000000D+00
   415  4.1400000000000D+00  0.0000000000000D+00  0.0000000000000D+00
   416  4.1500000000000D+00  0.0000000000000D+00  0.0000000000000D+00
   417  4.1600000000000D+00  0.0000000000000D+00  0.0000000000000D+00
   418  4.1700000000000D+00  0.0000000000000D+00  0.0000000000000D+00
   419  4.1800000000000D+00  0.0000000000000D+00  0.0000000000000D+00
   420  4.1900000000000D+00  0.0000000000000D+00  0.0000000000000D+00
   421  4.2000000000000D+00  0.0000000000000D+00  0.0000000000000D+00
   422  4.2100000000000D+00  0.0000000000000D+00  0.0000000000000D+00