Fe    ONCVPSP-3.3.0  r_core=   1.26437   1.20546   1.56719
     26.0000     16.0000      220408    zatom,zion,pspd
     8       2   2     4   600     0    pspcod,pspxc,lmax,lloc,mmax,r2well
  5.99000000  0.00000000  0.00000000    rchrg fchrg qchrg
     2     2     2     0     0    nproj
     1     1           extension_switch
   0                         1.0103156309139D+01  1.4501027859367D+00
     1  0.0000000000000D+00 -2.3013813077455D-12  2.2759441553610D-10
     2  1.0000000000000D-02  9.5170659862108D-02 -2.8359382312802D-02
     3  2.0000000000000D-02  1.9005178984427D-01 -5.6464755461986D-02
     4  3.0000000000000D-02  2.8435486532161D-01 -8.4063537313727D-02
     5  4.0000000000000D-02  3.7779336907408D-01 -1.1090599127514D-01
     6  5.0000000000000D-02  4.7008378722567D-01 -1.3674662782595D-01
     7  6.0000000000000D-02  5.6094659586833D-01 -1.6134558072516D-01
     8  7.0000000000000D-02  6.5010723526693D-01 -1.8446994971923D-01
     9  8.0000000000000D-02  7.3729706854387D-01 -2.0589510180603D-01
    10  9.0000000000000D-02  8.2225432174636D-01 -2.2540592339039D-01
    11  1.0000000000000D-01  9.0472500220646D-01 -2.4279801600174D-01
    12  1.1000000000000D-01  9.8446379211475D-01 -2.5787882862796D-01
    13  1.2000000000000D-01  1.0612349142447D+00 -2.7046872015214D-01
    14  1.3000000000000D-01  1.1348129667863D+00 -2.8040194585485D-01
    15  1.4000000000000D-01  1.2049837242779D+00 -2.8752756246281D-01
    16  1.5000000000000D-01  1.2715449016617D+00 -2.9171024678020D-01
    17  1.6000000000000D-01  1.3343068785384D+00 -2.9283102352833D-01
    18  1.7000000000000D-01  1.3930933807550D+00 -2.9078789863820D-01
    19  1.8000000000000D-01  1.4477421165313D+00 -2.8549639488433D-01
    20  1.9000000000000D-01  1.4981053644180D+00 -2.7688998741170D-01
    21  2.0000000000000D-01  1.5440505104782D+00 -2.6492043738662D-01
    22  2.1000000000000D-01  1.5854605322020D+00 -2.4955802269038D-01
    23  2.2000000000000D-01  1.6222344267958D+00 -2.3079166526653D-01
    24  2.3000000000000D-01  1.6542875816380D+00 -2.0862895542355D-01
    25  2.4000000000000D-01  1.6815520848604D+00 -1.8309607407732D-01
    26  2.5000000000000D-01  1.7039769742002D+00 -1.5423761458750D-01
    27  2.6000000000000D-01  1.7215284224706D+00 -1.2211630649324D-01
    28  2.7000000000000D-01  1.7341898582154D+00 -8.6812644078569D-02
    29  2.8000000000000D-01  1.7419620203555D+00 -4.8424423293928D-02
    30  2.9000000000000D-01  1.7448629458830D+00 -7.0661911192864D-03
    31  3.0000000000000D-01  1.7429278899300D+00  3.7131388026579D-02
    32  3.1000000000000D-01  1.7362091778210D+00  8.4022243753920D-02
    33  3.2000000000000D-01  1.7247759890111D+00  1.3344568354705D-01
    34  3.3000000000000D-01  1.7087140731193D+00  1.8522724311890D-01
    35  3.4000000000000D-01  1.6881253985785D+00  2.3917959709567D-01
    36  3.5000000000000D-01  1.6631277347467D+00  2.9510352360238D-01
    37  3.6000000000000D-01  1.6338541686463D+00  3.5278891613111D-01
    38  3.7000000000000D-01  1.6004525578311D+00  4.1201583595016D-01
    39  3.8000000000000D-01  1.5630849212027D+00  4.7255559825235D-01
    40  3.9000000000000D-01  1.5219267699262D+00  5.3417188524581D-01
    41  4.0000000000000D-01  1.4771663809152D+00  5.9662187945899D-01
    42  4.1000000000000D-01  1.4290040156657D+00  6.5965741066299D-01
    43  4.2000000000000D-01  1.3776510875225D+00  7.2302611000378D-01
    44  4.3000000000000D-01  1.3233292807492D+00  7.8647256518429D-01
    45  4.4000000000000D-01  1.2662696250485D+00  8.4973947083510D-01
    46  4.5000000000000D-01  1.2067115294344D+00  9.1256876855855D-01
    47  4.6000000000000D-01  1.1449017795959D+00  9.7470277152058D-01
    48  4.7000000000000D-01  1.0810935031077D+00  1.0358852688881D+00
    49  4.8000000000000D-01  1.0155451070358D+00  1.0958626058644D+00
    50  4.9000000000000D-01  9.4851919265347D-01  1.1543847355514D+00
    51  5.0000000000000D-01  8.8028145212428D-01  1.2112062393570D+00
    52  5.1000000000000D-01  8.1109955212581D-01  1.2660873131655D+00
    53  5.2000000000000D-01  7.4124200947107D-01  1.3187947169851D+00
    54  5.3000000000000D-01  6.7097706384536D-01  1.3691026862735D+00
    55  5.4000000000000D-01  6.0057155280421D-01  1.4167938036162D+00
    56  5.5000000000000D-01  5.3028979417896D-01  1.4616598298756D+00
    57  5.6000000000000D-01  4.6039248100786D-01  1.5035024943464D+00
    58  5.7000000000000D-01  3.9113559405416D-01  1.5421342438271D+00
    59  5.8000000000000D-01  3.2276933688821D-01  1.5773789508478D+00
    60  5.9000000000000D-01  2.5553709840003D-01  1.6090725815767D+00
    61  6.0000000000000D-01  1.8967444747208D-01  1.6370638241476D+00
    62  6.1000000000000D-01  1.2540816438134D-01  1.6612146783200D+00
    63  6.2000000000000D-01  6.2955313316693D-02  1.6814010074798D+00
    64  6.3000000000000D-01  2.5223601921833D-03  1.6975130540307D+00
    65  6.4000000000000D-01 -5.5695660286259D-02  1.7094559191928D+00
    66  6.5000000000000D-01 -1.1151592458548D-01  1.7171500081347D+00
    67  6.6000000000000D-01 -1.6476854388333D-01  1.7205314412052D+00
    68  6.7000000000000D-01 -2.1529722799276D-01  1.7195524318126D+00
    69  6.8000000000000D-01 -2.6295988676776D-01  1.7141816312231D+00
    70  6.9000000000000D-01 -3.0762916637926D-01  1.7044044402209D+00
    71  7.0000000000000D-01 -3.4919291814957D-01  1.6902232871949D+00
    72  7.1000000000000D-01 -3.8755459793877D-01  1.6716578718061D+00
    73  7.2000000000000D-01 -4.2263359438830D-01  1.6487453729385D+00
    74  7.3000000000000D-01 -4.5436548463774D-01  1.6215406191679D+00
    75  7.4000000000000D-01 -4.8270221644352D-01  1.5901162195009D+00
    76  7.5000000000000D-01 -5.0761221594002D-01  1.5545626516452D+00
    77  7.6000000000000D-01 -5.2908042059092D-01  1.5149883045964D+00
    78  7.7000000000000D-01 -5.4710823718409D-01  1.4715194718565D+00
    79  7.8000000000000D-01 -5.6171342502127D-01  1.4243002911662D+00
    80  7.9000000000000D-01 -5.7292990474616D-01  1.3734926262336D+00
    81  8.0000000000000D-01 -5.8080749353868D-01  1.3192758855871D+00
    82  8.1000000000000D-01 -5.8541156767857D-01  1.2618467733910D+00
    83  8.2000000000000D-01 -5.8682265374753D-01  1.2014189668306D+00
    84  8.3000000000000D-01 -5.8513594999443D-01  1.1382227145198D+00
    85  8.4000000000000D-01 -5.8046077963225D-01  1.0725043503145D+00
    86  8.5000000000000D-01 -5.7291997806832D-01  1.0045257169264D+00
    87  8.6000000000000D-01 -5.6264921628931D-01  9.3456349383955D-01
    88  8.7000000000000D-01 -5.4979626283020D-01  8.6290842423246D-01
    89  8.8000000000000D-01 -5.3452018695043D-01  7.8986443590838D-01
    90  8.9000000000000D-01 -5.1699050582113D-01  7.1574765162826D-01
    91  9.0000000000000D-01 -4.9738627869348D-01  6.4088528473342D-01
    92  9.1000000000000D-01 -4.7589515117059D-01  5.6561441652693D-01
    93  9.2000000000000D-01 -4.5271235284184D-01  4.9028065255259D-01
    94  9.3000000000000D-01 -4.2803965166064D-01  4.1523665566285D-01
    95  9.4000000000000D-01 -4.0208426855254D-01  3.4084055459154D-01
    96  9.5000000000000D-01 -3.7505775583039D-01  2.6745422763717D-01
    97  9.6000000000000D-01 -3.4717484306663D-01  1.9544146200329D-01
    98  9.7000000000000D-01 -3.1865225412909D-01  1.2516599033727D-01
    99  9.8000000000000D-01 -2.8970749912507D-01  5.6989407000416D-02
   100  9.9000000000000D-01 -2.6055764501982D-01 -8.7310323491599D-03
   101  1.0000000000000D+00 -2.3141806869738D-01 -7.1644723258627D-02
   102  1.0100000000000D+00 -2.0250119621527D-01 -1.3141013145559D-01
   103  1.0200000000000D+00 -1.7401523196851D-01 -1.8769731169889D-01
   104  1.0300000000000D+00 -1.4616288142327D-01 -2.4019051897467D-01
   105  1.0400000000000D+00 -1.1914007099968D-01 -2.8859090360986D-01
   106  1.0500000000000D+00 -9.3134668598339D-02 -3.3261928113788D-01
   107  1.0600000000000D+00 -6.8325208133912D-02 -3.7201896695448D-01
   108  1.0700000000000D+00 -4.4879621255089D-02 -4.0655866545183D-01
   109  1.0800000000000D+00 -2.2953977862201D-02 -4.3603540764818D-01
   110  1.0900000000000D+00 -2.6912326144532D-03 -4.6027754377109D-01
   111  1.1000000000000D+00  1.5779871812156D-02 -4.7914728132404D-01
   112  1.1100000000000D+00  3.2346506914918D-02 -4.9254535770701D-01
   113  1.1200000000000D+00  4.6911473540953D-02 -5.0040895561449D-01
   114  1.1300000000000D+00  5.9390041355511D-02 -5.0269998883434D-01
   115  1.1400000000000D+00  6.9706375728648D-02 -4.9939286079934D-01
   116  1.1500000000000D+00  7.7793001382837D-02 -4.9047303361697D-01
   117  1.1600000000000D+00  8.3591153852076D-02 -4.7593878428229D-01
   118  1.1700000000000D+00  8.7050707531087D-02 -4.5580145744814D-01
   119  1.1800000000000D+00  8.8130188460420D-02 -4.3008603450325D-01
   120  1.1900000000000D+00  8.6796771395398D-02 -3.9883164169572D-01
   121  1.2000000000000D+00  8.3026259490223D-02 -3.6209198478274D-01
   122  1.2100000000000D+00  7.6803049888037D-02 -3.1993571383513D-01
   123  1.2200000000000D+00  6.8118976900126D-02 -2.7244297254823D-01
   124  1.2300000000000D+00  5.6915287498128D-02 -2.1951009975519D-01
   125  1.2400000000000D+00  4.3886235581609D-02 -1.6357545595554D-01
   126  1.2500000000000D+00  2.7125106300168D-02 -9.8218359557568D-02
   127  1.2600000000000D+00  6.5603527023066D-03 -2.3231974571295D-02
   128  1.2700000000000D+00 -2.3948633814941D-03  8.6804754783397D-03
   129  1.2800000000000D+00  7.2005388849016D-05 -2.6197987850378D-04
   130  1.2900000000000D+00  4.6880552369955D-04 -1.6994937403711D-03
   131  1.3000000000000D+00 -6.8907596246846D-05  2.5483193327472D-04
   132  1.3100000000000D+00 -6.3127514120150D-06  2.3314528138640D-05
   133  1.3200000000000D+00 -3.9629852330492D-07  9.0987651802125D-07
   134  1.3300000000000D+00  0.0000000000000D+00  0.0000000000000D+00
   135  1.3400000000000D+00  0.0000000000000D+00  0.0000000000000D+00
   136  1.3500000000000D+00  0.0000000000000D+00  0.0000000000000D+00
   137  1.3600000000000D+00  0.0000000000000D+00  0.0000000000000D+00
   138  1.3700000000000D+00  0.0000000000000D+00  0.0000000000000D+00
   139  1.3800000000000D+00  0.0000000000000D+00  0.0000000000000D+00
   140  1.3900000000000D+00  0.0000000000000D+00  0.0000000000000D+00
   141  1.4000000000000D+00  0.0000000000000D+00  0.0000000000000D+00
   142  1.4100000000000D+00  0.0000000000000D+00  0.0000000000000D+00
   143  1.4200000000000D+00  0.0000000000000D+00  0.0000000000000D+00
   144  1.4300000000000D+00  0.0000000000000D+00  0.0000000000000D+00
   145  1.4400000000000D+00  0.0000000000000D+00  0.0000000000000D+00
   146  1.4500000000000D+00  0.0000000000000D+00  0.0000000000000D+00
   147  1.4600000000000D+00  0.0000000000000D+00  0.0000000000000D+00
   148  1.4700000000000D+00  0.0000000000000D+00  0.0000000000000D+00
   149  1.4800000000000D+00  0.0000000000000D+00  0.0000000000000D+00
   150  1.4900000000000D+00  0.0000000000000D+00  0.0000000000000D+00
   151  1.5000000000000D+00  0.0000000000000D+00  0.0000000000000D+00
   152  1.5100000000000D+00  0.0000000000000D+00  0.0000000000000D+00
   153  1.5200000000000D+00  0.0000000000000D+00  0.0000000000000D+00
   154  1.5300000000000D+00  0.0000000000000D+00  0.0000000000000D+00
   155  1.5400000000000D+00  0.0000000000000D+00  0.0000000000000D+00
   156  1.5500000000000D+00  0.0000000000000D+00  0.0000000000000D+00
   157  1.5600000000000D+00  0.0000000000000D+00  0.0000000000000D+00
   158  1.5700000000000D+00  0.0000000000000D+00  0.0000000000000D+00
   159  1.5800000000000D+00  0.0000000000000D+00  0.0000000000000D+00
   160  1.5900000000000D+00  0.0000000000000D+00  0.0000000000000D+00
   161  1.6000000000000D+00  0.0000000000000D+00  0.0000000000000D+00
   162  1.6100000000000D+00  0.0000000000000D+00  0.0000000000000D+00
   163  1.6200000000000D+00  0.0000000000000D+00  0.0000000000000D+00
   164  1.6300000000000D+00  0.0000000000000D+00  0.0000000000000D+00
   165  1.6400000000000D+00  0.0000000000000D+00  0.0000000000000D+00
   166  1.6500000000000D+00  0.0000000000000D+00  0.0000000000000D+00
   167  1.6600000000000D+00  0.0000000000000D+00  0.0000000000000D+00
   168  1.6700000000000D+00  0.0000000000000D+00  0.0000000000000D+00
   169  1.6800000000000D+00  0.0000000000000D+00  0.0000000000000D+00
   170  1.6900000000000D+00  0.0000000000000D+00  0.0000000000000D+00
   171  1.7000000000000D+00  0.0000000000000D+00  0.0000000000000D+00
   172  1.7100000000000D+00  0.0000000000000D+00  0.0000000000000D+00
   173  1.7200000000000D+00  0.0000000000000D+00  0.0000000000000D+00
   174  1.7300000000000D+00  0.0000000000000D+00  0.0000000000000D+00
   175  1.7400000000000D+00  0.0000000000000D+00  0.0000000000000D+00
   176  1.7500000000000D+00  0.0000000000000D+00  0.0000000000000D+00
   177  1.7600000000000D+00  0.0000000000000D+00  0.0000000000000D+00
   178  1.7700000000000D+00  0.0000000000000D+00  0.0000000000000D+00
   179  1.7800000000000D+00  0.0000000000000D+00  0.0000000000000D+00
   180  1.7900000000000D+00  0.0000000000000D+00  0.0000000000000D+00
   181  1.8000000000000D+00  0.0000000000000D+00  0.0000000000000D+00
   182  1.8100000000000D+00  0.0000000000000D+00  0.0000000000000D+00
   183  1.8200000000000D+00  0.0000000000000D+00  0.0000000000000D+00
   184  1.8300000000000D+00  0.0000000000000D+00  0.0000000000000D+00
   185  1.8400000000000D+00  0.0000000000000D+00  0.0000000000000D+00
   186  1.8500000000000D+00  0.0000000000000D+00  0.0000000000000D+00
   187  1.8600000000000D+00  0.0000000000000D+00  0.0000000000000D+00
   188  1.8700000000000D+00  0.0000000000000D+00  0.0000000000000D+00
   189  1.8800000000000D+00  0.0000000000000D+00  0.0000000000000D+00
   190  1.8900000000000D+00  0.0000000000000D+00  0.0000000000000D+00
   191  1.9000000000000D+00  0.0000000000000D+00  0.0000000000000D+00
   192  1.9100000000000D+00  0.0000000000000D+00  0.0000000000000D+00
   193  1.9200000000000D+00  0.0000000000000D+00  0.0000000000000D+00
   194  1.9300000000000D+00  0.0000000000000D+00  0.0000000000000D+00
   195  1.9400000000000D+00  0.0000000000000D+00  0.0000000000000D+00
   196  1.9500000000000D+00  0.0000000000000D+00  0.0000000000000D+00
   197  1.9600000000000D+00  0.0000000000000D+00  0.0000000000000D+00
   198  1.9700000000000D+00  0.0000000000000D+00  0.0000000000000D+00
   199  1.9800000000000D+00  0.0000000000000D+00  0.0000000000000D+00
   200  1.9900000000000D+00  0.0000000000000D+00  0.0000000000000D+00
   201  2.0000000000000D+00  0.0000000000000D+00  0.0000000000000D+00
   202  2.0100000000000D+00  0.0000000000000D+00  0.0000000000000D+00
   203  2.0200000000000D+00  0.0000000000000D+00  0.0000000000000D+00
   204  2.0300000000000D+00  0.0000000000000D+00  0.0000000000000D+00
   205  2.0400000000000D+00  0.0000000000000D+00  0.0000000000000D+00
   206  2.0500000000000D+00  0.0000000000000D+00  0.0000000000000D+00
   207  2.0600000000000D+00  0.0000000000000D+00  0.0000000000000D+00
   208  2.0700000000000D+00  0.0000000000000D+00  0.0000000000000D+00
   209  2.0800000000000D+00  0.0000000000000D+00  0.0000000000000D+00
   210  2.0900000000000D+00  0.0000000000000D+00  0.0000000000000D+00
   211  2.1000000000000D+00  0.0000000000000D+00  0.0000000000000D+00
   212  2.1100000000000D+00  0.0000000000000D+00  0.0000000000000D+00
   213  2.1200000000000D+00  0.0000000000000D+00  0.0000000000000D+00
   214  2.1300000000000D+00  0.0000000000000D+00  0.0000000000000D+00
   215  2.1400000000000D+00  0.0000000000000D+00  0.0000000000000D+00
   216  2.1500000000000D+00  0.0000000000000D+00  0.0000000000000D+00
   217  2.1600000000000D+00  0.0000000000000D+00  0.0000000000000D+00
   218  2.1700000000000D+00  0.0000000000000D+00  0.0000000000000D+00
   219  2.1800000000000D+00  0.0000000000000D+00  0.0000000000000D+00
   220  2.1900000000000D+00  0.0000000000000D+00  0.0000000000000D+00
   221  2.2000000000000D+00  0.0000000000000D+00  0.0000000000000D+00
   222  2.2100000000000D+00  0.0000000000000D+00  0.0000000000000D+00
   223  2.2200000000000D+00  0.0000000000000D+00  0.0000000000000D+00
   224  2.2300000000000D+00  0.0000000000000D+00  0.0000000000000D+00
   225  2.2400000000000D+00  0.0000000000000D+00  0.0000000000000D+00
   226  2.2500000000000D+00  0.0000000000000D+00  0.0000000000000D+00
   227  2.2600000000000D+00  0.0000000000000D+00  0.0000000000000D+00
   228  2.2700000000000D+00  0.0000000000000D+00  0.0000000000000D+00
   229  2.2800000000000D+00  0.0000000000000D+00  0.0000000000000D+00
   230  2.2900000000000D+00  0.0000000000000D+00  0.0000000000000D+00
   231  2.3000000000000D+00  0.0000000000000D+00  0.0000000000000D+00
   232  2.3100000000000D+00  0.0000000000000D+00  0.0000000000000D+00
   233  2.3200000000000D+00  0.0000000000000D+00  0.0000000000000D+00
   234  2.3300000000000D+00  0.0000000000000D+00  0.0000000000000D+00
   235  2.3400000000000D+00  0.0000000000000D+00  0.0000000000000D+00
   236  2.3500000000000D+00  0.0000000000000D+00  0.0000000000000D+00
   237  2.3600000000000D+00  0.0000000000000D+00  0.0000000000000D+00
   238  2.3700000000000D+00  0.0000000000000D+00  0.0000000000000D+00
   239  2.3800000000000D+00  0.0000000000000D+00  0.0000000000000D+00
   240  2.3900000000000D+00  0.0000000000000D+00  0.0000000000000D+00
   241  2.4000000000000D+00  0.0000000000000D+00  0.0000000000000D+00
   242  2.4100000000000D+00  0.0000000000000D+00  0.0000000000000D+00
   243  2.4200000000000D+00  0.0000000000000D+00  0.0000000000000D+00
   244  2.4300000000000D+00  0.0000000000000D+00  0.0000000000000D+00
   245  2.4400000000000D+00  0.0000000000000D+00  0.0000000000000D+00
   246  2.4500000000000D+00  0.0000000000000D+00  0.0000000000000D+00
   247  2.4600000000000D+00  0.0000000000000D+00  0.0000000000000D+00
   248  2.4700000000000D+00  0.0000000000000D+00  0.0000000000000D+00
   249  2.4800000000000D+00  0.0000000000000D+00  0.0000000000000D+00
   250  2.4900000000000D+00  0.0000000000000D+00  0.0000000000000D+00
   251  2.5000000000000D+00  0.0000000000000D+00  0.0000000000000D+00
   252  2.5100000000000D+00  0.0000000000000D+00  0.0000000000000D+00
   253  2.5200000000000D+00  0.0000000000000D+00  0.0000000000000D+00
   254  2.5300000000000D+00  0.0000000000000D+00  0.0000000000000D+00
   255  2.5400000000000D+00  0.0000000000000D+00  0.0000000000000D+00
   256  2.5500000000000D+00  0.0000000000000D+00  0.0000000000000D+00
   257  2.5600000000000D+00  0.0000000000000D+00  0.0000000000000D+00
   258  2.5700000000000D+00  0.0000000000000D+00  0.0000000000000D+00
   259  2.5800000000000D+00  0.0000000000000D+00  0.0000000000000D+00
   260  2.5900000000000D+00  0.0000000000000D+00  0.0000000000000D+00
   261  2.6000000000000D+00  0.0000000000000D+00  0.0000000000000D+00
   262  2.6100000000000D+00  0.0000000000000D+00  0.0000000000000D+00
   263  2.6200000000000D+00  0.0000000000000D+00  0.0000000000000D+00
   264  2.6300000000000D+00  0.0000000000000D+00  0.0000000000000D+00
   265  2.6400000000000D+00  0.0000000000000D+00  0.0000000000000D+00
   266  2.6500000000000D+00  0.0000000000000D+00  0.0000000000000D+00
   267  2.6600000000000D+00  0.0000000000000D+00  0.0000000000000D+00
   268  2.6700000000000D+00  0.0000000000000D+00  0.0000000000000D+00
   269  2.6800000000000D+00  0.0000000000000D+00  0.0000000000000D+00
   270  2.6900000000000D+00  0.0000000000000D+00  0.0000000000000D+00
   271  2.7000000000000D+00  0.0000000000000D+00  0.0000000000000D+00
   272  2.7100000000000D+00  0.0000000000000D+00  0.0000000000000D+00
   273  2.7200000000000D+00  0.0000000000000D+00  0.0000000000000D+00
   274  2.7300000000000D+00  0.0000000000000D+00  0.0000000000000D+00
   275  2.7400000000000D+00  0.0000000000000D+00  0.0000000000000D+00
   276  2.7500000000000D+00  0.0000000000000D+00  0.0000000000000D+00
   277  2.7600000000000D+00  0.0000000000000D+00  0.0000000000000D+00
   278  2.7700000000000D+00  0.0000000000000D+00  0.0000000000000D+00
   279  2.7800000000000D+00  0.0000000000000D+00  0.0000000000000D+00
   280  2.7900000000000D+00  0.0000000000000D+00  0.0000000000000D+00
   281  2.8000000000000D+00  0.0000000000000D+00  0.0000000000000D+00
   282  2.8100000000000D+00  0.0000000000000D+00  0.0000000000000D+00
   283  2.8200000000000D+00  0.0000000000000D+00  0.0000000000000D+00
   284  2.8300000000000D+00  0.0000000000000D+00  0.0000000000000D+00
   285  2.8400000000000D+00  0.0000000000000D+00  0.0000000000000D+00
   286  2.8500000000000D+00  0.0000000000000D+00  0.0000000000000D+00
   287  2.8600000000000D+00  0.0000000000000D+00  0.0000000000000D+00
   288  2.8700000000000D+00  0.0000000000000D+00  0.0000000000000D+00
   289  2.8800000000000D+00  0.0000000000000D+00  0.0000000000000D+00
   290  2.8900000000000D+00  0.0000000000000D+00  0.0000000000000D+00
   291  2.9000000000000D+00  0.0000000000000D+00  0.0000000000000D+00
   292  2.9100000000000D+00  0.0000000000000D+00  0.0000000000000D+00
   293  2.9200000000000D+00  0.0000000000000D+00  0.0000000000000D+00
   294  2.9300000000000D+00  0.0000000000000D+00  0.0000000000000D+00
   295  2.9400000000000D+00  0.0000000000000D+00  0.0000000000000D+00
   296  2.9500000000000D+00  0.0000000000000D+00  0.0000000000000D+00
   297  2.9600000000000D+00  0.0000000000000D+00  0.0000000000000D+00
   298  2.9700000000000D+00  0.0000000000000D+00  0.0000000000000D+00
   299  2.9800000000000D+00  0.0000000000000D+00  0.0000000000000D+00
   300  2.9900000000000D+00  0.0000000000000D+00  0.0000000000000D+00
   301  3.0000000000000D+00  0.0000000000000D+00  0.0000000000000D+00
   302  3.0100000000000D+00  0.0000000000000D+00  0.0000000000000D+00
   303  3.0200000000000D+00  0.0000000000000D+00  0.0000000000000D+00
   304  3.0300000000000D+00  0.0000000000000D+00  0.0000000000000D+00
   305  3.0400000000000D+00  0.0000000000000D+00  0.0000000000000D+00
   306  3.0500000000000D+00  0.0000000000000D+00  0.0000000000000D+00
   307  3.0600000000000D+00  0.0000000000000D+00  0.0000000000000D+00
   308  3.0700000000000D+00  0.0000000000000D+00  0.0000000000000D+00
   309  3.0800000000000D+00  0.0000000000000D+00  0.0000000000000D+00
   310  3.0900000000000D+00  0.0000000000000D+00  0.0000000000000D+00
   311  3.1000000000000D+00  0.0000000000000D+00  0.0000000000000D+00
   312  3.1100000000000D+00  0.0000000000000D+00  0.0000000000000D+00
   313  3.1200000000000D+00  0.0000000000000D+00  0.0000000000000D+00
   314  3.1300000000000D+00  0.0000000000000D+00  0.0000000000000D+00
   315  3.1400000000000D+00  0.0000000000000D+00  0.0000000000000D+00
   316  3.1500000000000D+00  0.0000000000000D+00  0.0000000000000D+00
   317  3.1600000000000D+00  0.0000000000000D+00  0.0000000000000D+00
   318  3.1700000000000D+00  0.0000000000000D+00  0.0000000000000D+00
   319  3.1800000000000D+00  0.0000000000000D+00  0.0000000000000D+00
   320  3.1900000000000D+00  0.0000000000000D+00  0.0000000000000D+00
   321  3.2000000000000D+00  0.0000000000000D+00  0.0000000000000D+00
   322  3.2100000000000D+00  0.0000000000000D+00  0.0000000000000D+00
   323  3.2200000000000D+00  0.0000000000000D+00  0.0000000000000D+00
   324  3.2300000000000D+00  0.0000000000000D+00  0.0000000000000D+00
   325  3.2400000000000D+00  0.0000000000000D+00  0.0000000000000D+00
   326  3.2500000000000D+00  0.0000000000000D+00  0.0000000000000D+00
   327  3.2600000000000D+00  0.0000000000000D+00  0.0000000000000D+00
   328  3.2700000000000D+00  0.0000000000000D+00  0.0000000000000D+00
   329  3.2800000000000D+00  0.0000000000000D+00  0.0000000000000D+00
   330  3.2900000000000D+00  0.0000000000000D+00  0.0000000000000D+00
   331  3.3000000000000D+00  0.0000000000000D+00  0.0000000000000D+00
   332  3.3100000000000D+00  0.0000000000000D+00  0.0000000000000D+00
   333  3.3200000000000D+00  0.0000000000000D+00  0.0000000000000D+00
   334  3.3300000000000D+00  0.0000000000000D+00  0.0000000000000D+00
   335  3.3400000000000D+00  0.0000000000000D+00  0.0000000000000D+00
   336  3.3500000000000D+00  0.0000000000000D+00  0.0000000000000D+00
   337  3.3600000000000D+00  0.0000000000000D+00  0.0000000000000D+00
   338  3.3700000000000D+00  0.0000000000000D+00  0.0000000000000D+00
   339  3.3800000000000D+00  0.0000000000000D+00  0.0000000000000D+00
   340  3.3900000000000D+00  0.0000000000000D+00  0.0000000000000D+00
   341  3.4000000000000D+00  0.0000000000000D+00  0.0000000000000D+00
   342  3.4100000000000D+00  0.0000000000000D+00  0.0000000000000D+00
   343  3.4200000000000D+00  0.0000000000000D+00  0.0000000000000D+00
   344  3.4300000000000D+00  0.0000000000000D+00  0.0000000000000D+00
   345  3.4400000000000D+00  0.0000000000000D+00  0.0000000000000D+00
   346  3.4500000000000D+00  0.0000000000000D+00  0.0000000000000D+00
   347  3.4600000000000D+00  0.0000000000000D+00  0.0000000000000D+00
   348  3.4700000000000D+00  0.0000000000000D+00  0.0000000000000D+00
   349  3.4800000000000D+00  0.0000000000000D+00  0.0000000000000D+00
   350  3.4900000000000D+00  0.0000000000000D+00  0.0000000000000D+00
   351  3.5000000000000D+00  0.0000000000000D+00  0.0000000000000D+00
   352  3.5100000000000D+00  0.0000000000000D+00  0.0000000000000D+00
   353  3.5200000000000D+00  0.0000000000000D+00  0.0000000000000D+00
   354  3.5300000000000D+00  0.0000000000000D+00  0.0000000000000D+00
   355  3.5400000000000D+00  0.0000000000000D+00  0.0000000000000D+00
   356  3.5500000000000D+00  0.0000000000000D+00  0.0000000000000D+00
   357  3.5600000000000D+00  0.0000000000000D+00  0.0000000000000D+00
   358  3.5700000000000D+00  0.0000000000000D+00  0.0000000000000D+00
   359  3.5800000000000D+00  0.0000000000000D+00  0.0000000000000D+00
   360  3.5900000000000D+00  0.0000000000000D+00  0.0000000000000D+00
   361  3.6000000000000D+00  0.0000000000000D+00  0.0000000000000D+00
   362  3.6100000000000D+00  0.0000000000000D+00  0.0000000000000D+00
   363  3.6200000000000D+00  0.0000000000000D+00  0.0000000000000D+00
   364  3.6300000000000D+00  0.0000000000000D+00  0.0000000000000D+00
   365  3.6400000000000D+00  0.0000000000000D+00  0.0000000000000D+00
   366  3.6500000000000D+00  0.0000000000000D+00  0.0000000000000D+00
   367  3.6600000000000D+00  0.0000000000000D+00  0.0000000000000D+00
   368  3.6700000000000D+00  0.0000000000000D+00  0.0000000000000D+00
   369  3.6800000000000D+00  0.0000000000000D+00  0.0000000000000D+00
   370  3.6900000000000D+00  0.0000000000000D+00  0.0000000000000D+00
   371  3.7000000000000D+00  0.0000000000000D+00  0.0000000000000D+00
   372  3.7100000000000D+00  0.0000000000000D+00  0.0000000000000D+00
   373  3.7200000000000D+00  0.0000000000000D+00  0.0000000000000D+00
   374  3.7300000000000D+00  0.0000000000000D+00  0.0000000000000D+00
   375  3.7400000000000D+00  0.0000000000000D+00  0.0000000000000D+00
   376  3.7500000000000D+00  0.0000000000000D+00  0.0000000000000D+00
   377  3.7600000000000D+00  0.0000000000000D+00  0.0000000000000D+00
   378  3.7700000000000D+00  0.0000000000000D+00  0.0000000000000D+00
   379  3.7800000000000D+00  0.0000000000000D+00  0.0000000000000D+00
   380  3.7900000000000D+00  0.0000000000000D+00  0.0000000000000D+00
   381  3.8000000000000D+00  0.0000000000000D+00  0.0000000000000D+00
   382  3.8100000000000D+00  0.0000000000000D+00  0.0000000000000D+00
   383  3.8200000000000D+00  0.0000000000000D+00  0.0000000000000D+00
   384  3.8300000000000D+00  0.0000000000000D+00  0.0000000000000D+00
   385  3.8400000000000D+00  0.0000000000000D+00  0.0000000000000D+00
   386  3.8500000000000D+00  0.0000000000000D+00  0.0000000000000D+00
   387  3.8600000000000D+00  0.0000000000000D+00  0.0000000000000D+00
   388  3.8700000000000D+00  0.0000000000000D+00  0.0000000000000D+00
   389  3.8800000000000D+00  0.0000000000000D+00  0.0000000000000D+00
   390  3.8900000000000D+00  0.0000000000000D+00  0.0000000000000D+00
   391  3.9000000000000D+00  0.0000000000000D+00  0.0000000000000D+00
   392  3.9100000000000D+00  0.0000000000000D+00  0.0000000000000D+00
   393  3.9200000000000D+00  0.0000000000000D+00  0.0000000000000D+00
   394  3.9300000000000D+00  0.0000000000000D+00  0.0000000000000D+00
   395  3.9400000000000D+00  0.0000000000000D+00  0.0000000000000D+00
   396  3.9500000000000D+00  0.0000000000000D+00  0.0000000000000D+00
   397  3.9600000000000D+00  0.0000000000000D+00  0.0000000000000D+00
   398  3.9700000000000D+00  0.0000000000000D+00  0.0000000000000D+00
   399  3.9800000000000D+00  0.0000000000000D+00  0.0000000000000D+00
   400  3.9900000000000D+00  0.0000000000000D+00  0.0000000000000D+00
   401  4.0000000000000D+00  0.0000000000000D+00  0.0000000000000D+00
   402  4.0100000000000D+00  0.0000000000000D+00  0.0000000000000D+00
   403  4.0200000000000D+00  0.0000000000000D+00  0.0000000000000D+00
   404  4.0300000000000D+00  0.0000000000000D+00  0.0000000000000D+00
   405  4.0400000000000D+00  0.0000000000000D+00  0.0000000000000D+00
   406  4.0500000000000D+00  0.0000000000000D+00  0.0000000000000D+00
   407  4.0600000000000D+00  0.0000000000000D+00  0.0000000000000D+00
   408  4.0700000000000D+00  0.0000000000000D+00  0.0000000000000D+00
   409  4.0800000000000D+00  0.0000000000000D+00  0.0000000000000D+00
   410  4.0900000000000D+00  0.0000000000000D+00  0.0000000000000D+00
   411  4.1000000000000D+00  0.0000000000000D+00  0.0000000000000D+00
   412  4.1100000000000D+00  0.0000000000000D+00  0.0000000000000D+00
   413  4.1200000000000D+00  0.0000000000000D+00  0.0000000000000D+00
   414  4.1300000000000D+00  0.0000000000000D+00  0.0000000000000D+00
   415  4.1400000000000D+00  0.0000000000000D+00  0.0000000000000D+00
   416  4.1500000000000D+00  0.0000000000000D+00  0.0000000000000D+00
   417  4.1600000000000D+00  0.0000000000000D+00  0.0000000000000D+00
   418  4.1700000000000D+00  0.0000000000000D+00  0.0000000000000D+00
   419  4.1800000000000D+00  0.0000000000000D+00  0.0000000000000D+00
   420  4.1900000000000D+00  0.0000000000000D+00  0.0000000000000D+00
   421  4.2000000000000D+00  0.0000000000000D+00  0.0000000000000D+00
   422  4.2100000000000D+00  0.0000000000000D+00  0.0000000000000D+00