Si    ONCVPSP-3.3.0  r_core=   1.40591   1.60303   1.80612
     14.0000     12.0000      220408    zatom,zion,pspd
     8       2   2     4   600     0    pspcod,pspxc,lmax,lloc,mmax,r2well
  5.99000000  0.00000000  0.00000000    rchrg fchrg qchrg
     2     2     2     0     0    nproj
     1     1           extension_switch
   0                         2.1078791731551D+00 -1.7706549658911D+00
     1  0.0000000000000D+00 -6.7352001753562D-10  1.9591306354982D-10
     2  1.0000000000000D-02  1.2585966007312D-01  4.7140799104734D-02
     3  2.0000000000000D-02  2.5099191764952D-01  9.4269300242074D-02
     4  3.0000000000000D-02  3.7467386075513D-01  1.4137275689471D-01
     5  4.0000000000000D-02  4.9619152998341D-01  1.8843753054860D-01
     6  5.0000000000000D-02  6.1484432375513D-01  2.3544865740214D-01
     7  6.0000000000000D-02  7.2994931882533D-01  2.8238943018426D-01
     8  7.0000000000000D-02  8.4084547857775D-01  3.2924099988569D-01
     9  8.0000000000000D-02  9.4689772232037D-01  3.7598200201189D-01
    10  9.0000000000000D-02  1.0475008296323D+00  4.2258821172447D-01
    11  1.0000000000000D-01  1.1420831548073D+00  4.6903223195435D-01
    12  1.1000000000000D-01  1.2301101275874D+00  5.1528321824502D-01
    13  1.2000000000000D-01  1.3110875176821D+00  5.6130664372355D-01
    14  1.3000000000000D-01  1.3845644420044D+00  6.0706410720205D-01
    15  1.4000000000000D-01  1.4501360951373D+00  6.5251318698851D-01
    16  1.5000000000000D-01  1.5074461852463D+00  6.9760734253673D-01
    17  1.6000000000000D-01  1.5561890594803D+00  7.4229586559465D-01
    18  1.7000000000000D-01  1.5961115048384D+00  7.8652388202444D-01
    19  1.8000000000000D-01  1.6270142125161D+00  8.3023240496979D-01
    20  1.9000000000000D-01  1.6487528958720D+00  8.7335843954139D-01
    21  2.0000000000000D-01  1.6612390543572D+00  9.1583513868616D-01
    22  2.1000000000000D-01  1.6644403780252D+00  9.5759200940271D-01
    23  2.2000000000000D-01  1.6583807895579D+00  9.9855516797152D-01
    24  2.3000000000000D-01  1.6431401231136D+00  1.0386476423871D+00
    25  2.4000000000000D-01  1.6188534416849D+00  1.0777897197158D+00
    26  2.5000000000000D-01  1.5857099970614D+00  1.1158993356608D+00
    27  2.6000000000000D-01  1.5439518388832D+00  1.1528925032030D+00
    28  2.7000000000000D-01  1.4938720816496D+00  1.1886837767995D+00
    29  2.8000000000000D-01  1.4358128408872D+00  1.2231867482718D+00
    30  2.9000000000000D-01  1.3701628519702D+00  1.2563145702037D+00
    31  3.0000000000000D-01  1.2973547873050D+00  1.2879805023951D+00
    32  3.1000000000000D-01  1.2178622897267D+00  1.3180984766861D+00
    33  3.2000000000000D-01  1.1321967419908D+00  1.3465836752841D+00
    34  3.3000000000000D-01  1.0409037941567D+00  1.3733531175842D+00
    35  3.4000000000000D-01  9.4455967244650D-01  1.3983262503835D+00
    36  3.5000000000000D-01  8.4376729479599D-01  1.4214255363456D+00
    37  3.6000000000000D-01  7.3915221978639D-01  1.4425770355788D+00
    38  3.7000000000000D-01  6.3135845694073D-01  1.4617109752406D+00
    39  3.8000000000000D-01  5.2104416747175D-01  1.4787623021870D+00
    40  3.9000000000000D-01  4.0887728547043D-01  1.4936712138253D+00
    41  4.0000000000000D-01  2.9553109021288D-01  1.5063836625260D+00
    42  4.1000000000000D-01  1.8167976072861D-01  1.5168518291765D+00
    43  4.2000000000000D-01  6.7993944010292D-02  1.5250345617360D+00
    44  4.3000000000000D-01 -4.4863631756736D-02  1.5308977749576D+00
    45  4.4000000000000D-01 -1.5624246780673D-01  1.5344148077872D+00
    46  4.5000000000000D-01 -2.6550849859393D-01  1.5355667353202D+00
    47  4.6000000000000D-01 -3.7204815885356D-01  1.5343426325972D+00
    48  4.7000000000000D-01 -4.7527228496456D-01  1.5307397879370D+00
    49  4.8000000000000D-01 -5.7461982285879D-01  1.5247638639473D+00
    50  4.9000000000000D-01 -6.6956131615784D-01  1.5164290048004D+00
    51  5.0000000000000D-01 -7.5960214987351D-01  1.5057578888259D+00
    52  5.1000000000000D-01 -8.4428552687561D-01  1.4927817259326D+00
    53  5.2000000000000D-01 -9.2319515639315D-01  1.4775401998400D+00
    54  5.3000000000000D-01 -9.9595763606017D-01  1.4600813555580D+00
    55  5.4000000000000D-01 -1.0622445114222D+00  1.4404614330035D+00
    56  5.5000000000000D-01 -1.1217739993721D+00  1.4187446480835D+00
    57  5.6000000000000D-01 -1.1743123646516D+00  1.3950029229924D+00
    58  5.7000000000000D-01 -1.2196749413243D+00  1.3693155678733D+00
    59  5.8000000000000D-01 -1.2577267939657D+00  1.3417689163675D+00
    60  5.9000000000000D-01 -1.2883830161968D+00  1.3124559179267D+00
    61  6.0000000000000D-01 -1.3116086670961D+00  1.2814756900775D+00
    62  6.1000000000000D-01 -1.3274183489094D+00  1.2489330341160D+00
    63  6.2000000000000D-01 -1.3358754323306D+00  1.2149379179573D+00
    64  6.3000000000000D-01 -1.3370909384121D+00  1.1796049300807D+00
    65  6.4000000000000D-01 -1.3312220888377D+00  1.1430527086831D+00
    66  6.5000000000000D-01 -1.3184705388590D+00  1.1054033502918D+00
    67  6.6000000000000D-01 -1.2990803095960D+00  1.0667818021831D+00
    68  6.7000000000000D-01 -1.2733354386194D+00  1.0273152430074D+00
    69  6.8000000000000D-01 -1.2415573697619D+00  9.8713245604246D-01
    70  6.9000000000000D-01 -1.2041021048899D+00  9.4636319947054D-01
    71  7.0000000000000D-01 -1.1613571419087D+00  9.0513757801733D-01
    72  7.1000000000000D-01 -1.1137382245556D+00  8.6358542019455D-01
    73  7.2000000000000D-01 -1.0616859305282D+00  8.2183566525633D-01
    74  7.3000000000000D-01 -1.0056621251987D+00  7.8001576381672D-01
    75  7.4000000000000D-01 -9.4614630856807D-01  7.3825109588187D-01
    76  7.5000000000000D-01 -8.8363188320539D-01  6.9666440982913D-01
    77  7.6000000000000D-01 -8.1862237070944D-01  6.5537528561921D-01
    78  7.7000000000000D-01 -7.5162760370832D-01  6.1449962525892D-01
    79  7.8000000000000D-01 -6.8315991959599D-01  5.7414917324536D-01
    80  7.9000000000000D-01 -6.1373038109833D-01  5.3443106941965D-01
    81  8.0000000000000D-01 -5.4384504737854D-01  4.9544743634322D-01
    82  8.1000000000000D-01 -4.7400131775069D-01  4.5729500298553D-01
    83  8.2000000000000D-01 -4.0468436819275D-01  4.2006476618241D-01
    84  8.3000000000000D-01 -3.3636369875771D-01  3.8384169099136D-01
    85  8.4000000000000D-01 -2.6948980770351D-01  3.4870445073888D-01
    86  8.5000000000000D-01 -2.0449100572709D-01  3.1472520722634D-01
    87  8.6000000000000D-01 -1.4177038112721D-01  2.8196943123972D-01
    88  8.7000000000000D-01 -8.1702924068081D-02  2.5049576319618D-01
    89  8.8000000000000D-01 -2.4632815408771D-02  2.2035591346062D-01
    90  8.9000000000000D-01  2.9129117166466D-02  1.9159460157901D-01
    91  9.0000000000000D-01  7.9307775693110D-02  1.6424953340633D-01
    92  9.1000000000000D-01  1.2566600378188D-01  1.3835141485543D-01
    93  9.2000000000000D-01  1.6800663899018D-01  1.1392400076232D-01
    94  9.3000000000000D-01  2.0617441336092D-01  9.0984177153148D-02
    95  9.4000000000000D-01  2.4005771206840D-01  6.9542075011214D-02
    96  9.5000000000000D-01  2.6959020221011D-01  4.9601213477892D-02
    97  9.6000000000000D-01  2.9475234566603D-01  3.1158670281356D-02
    98  9.7000000000000D-01  3.1557281158273D-01  1.4205277070980D-02
    99  9.8000000000000D-01  3.3212988614019D-01 -1.2741601278835D-03
   100  9.9000000000000D-01  3.4455174533196D-01 -1.5300656526934D-02
   101  1.0000000000000D+00  3.5302340623064D-01 -2.7900595841750D-02
   102  1.0100000000000D+00  3.5776511744725D-01 -3.9106248210279D-02
   103  1.0200000000000D+00  3.5903228408788D-01 -4.8955403184374D-02
   104  1.0300000000000D+00  3.5712594664253D-01 -5.7490536309302D-02
   105  1.0400000000000D+00  3.5236117947238D-01 -6.4759411074053D-02
   106  1.0500000000000D+00  3.4505208055126D-01 -7.0814816103489D-02
   107  1.0600000000000D+00  3.3550902838123D-01 -7.5713905359845D-02
   108  1.0700000000000D+00  3.2403699829431D-01 -7.9517526803521D-02
   109  1.0800000000000D+00  3.1093283188887D-01 -8.2289621342441D-02
   110  1.0900000000000D+00  2.9648317855173D-01 -8.4096630115750D-02
   111  1.1000000000000D+00  2.8096258821535D-01 -8.5006930603904D-02
   112  1.1100000000000D+00  2.6463182804372D-01 -8.5090299575478D-02
   113  1.1200000000000D+00  2.4773642698636D-01 -8.4417403251186D-02
   114  1.1300000000000D+00  2.3050545038746D-01 -8.3059314913790D-02
   115  1.1400000000000D+00  2.1315050486350D-01 -8.1087060037285D-02
   116  1.1500000000000D+00  1.9586497206512D-01 -7.8571188888336D-02
   117  1.1600000000000D+00  1.7882346759257D-01 -7.5581376401093D-02
   118  1.1700000000000D+00  1.6218151969117D-01 -7.2186049034773D-02
   119  1.1800000000000D+00  1.4607546048331D-01 -6.8452038222265D-02
   120  1.1900000000000D+00  1.3062252067871D-01 -6.4444259927779D-02
   121  1.2000000000000D+00  1.1592111658328D-01 -6.0225419743979D-02
   122  1.2100000000000D+00  1.0205131651133D-01 -5.5855742897307D-02
   123  1.2200000000000D+00  8.9075472687012D-02 -5.1392728488717D-02
   124  1.2300000000000D+00  7.7039002103766D-02 -4.6890927214752D-02
   125  1.2400000000000D+00  6.5971298953771D-02 -4.2401741795422D-02
   126  1.2500000000000D+00  5.5886760226489D-02 -3.7973249304824D-02
   127  1.2600000000000D+00  4.6785904421957D-02 -3.3650044560987D-02
   128  1.2700000000000D+00  3.8656562729445D-02 -2.9473103724474D-02
   129  1.2800000000000D+00  3.1475121714388D-02 -2.5479667248598D-02
   130  1.2900000000000D+00  2.5207795629723D-02 -2.1703141309277D-02
   131  1.3000000000000D+00  1.9811907007867D-02 -1.8173016865137D-02
   132  1.3100000000000D+00  1.5237154126206D-02 -1.4914805496827D-02
   133  1.3200000000000D+00  1.1426844102681D-02 -1.1949991189379D-02
   134  1.3300000000000D+00  8.3190726028082D-03 -9.2959972806126D-03
   135  1.3400000000000D+00  5.8478301122203D-03 -6.9661677727842D-03
   136  1.3500000000000D+00  3.9440176376989D-03 -4.9697622856331D-03
   137  1.3600000000000D+00  2.5368814145811D-03 -3.3124343257912D-03
   138  1.3700000000000D+00  1.5527007588237D-03 -1.9943659815265D-03
   139  1.3800000000000D+00  9.1009081936873D-04 -1.0079424353800D-03
   140  1.3900000000000D+00  5.6486906290814D-04 -3.6304757975301D-04
   141  1.4000000000000D+00  4.4569488594701D-04 -4.7001717150244D-05
   142  1.4100000000000D+00  2.9137446335042D-04  3.6010655830055D-05
   143  1.4200000000000D+00  5.2554625799873D-05  1.0419019356815D-05
   144  1.4300000000000D+00 -3.7837829679178D-05 -8.8472862919353D-06
   145  1.4400000000000D+00  3.0199433745209D-07  5.8497775893123D-08
   146  1.4500000000000D+00  7.8805715479027D-06  1.6280328709314D-06
   147  1.4600000000000D+00 -5.9647653113423D-07 -3.5685405804024D-08
   148  1.4700000000000D+00 -7.5675654908407D-07 -4.5274479613751D-08
   149  1.4800000000000D+00  0.0000000000000D+00  0.0000000000000D+00
   150  1.4900000000000D+00  0.0000000000000D+00  0.0000000000000D+00
   151  1.5000000000000D+00  0.0000000000000D+00  0.0000000000000D+00
   152  1.5100000000000D+00  0.0000000000000D+00  0.0000000000000D+00
   153  1.5200000000000D+00  0.0000000000000D+00  0.0000000000000D+00
   154  1.5300000000000D+00  0.0000000000000D+00  0.0000000000000D+00
   155  1.5400000000000D+00  0.0000000000000D+00  0.0000000000000D+00
   156  1.5500000000000D+00  0.0000000000000D+00  0.0000000000000D+00
   157  1.5600000000000D+00  0.0000000000000D+00  0.0000000000000D+00
   158  1.5700000000000D+00  0.0000000000000D+00  0.0000000000000D+00
   159  1.5800000000000D+00  0.0000000000000D+00  0.0000000000000D+00
   160  1.5900000000000D+00  0.0000000000000D+00  0.0000000000000D+00
   161  1.6000000000000D+00  0.0000000000000D+00  0.0000000000000D+00
   162  1.6100000000000D+00  0.0000000000000D+00  0.0000000000000D+00
   163  1.6200000000000D+00  0.0000000000000D+00  0.0000000000000D+00
   164  1.6300000000000D+00  0.0000000000000D+00  0.0000000000000D+00
   165  1.6400000000000D+00  0.0000000000000D+00  0.0000000000000D+00
   166  1.6500000000000D+00  0.0000000000000D+00  0.0000000000000D+00
   167  1.6600000000000D+00  0.0000000000000D+00  0.0000000000000D+00
   168  1.6700000000000D+00  0.0000000000000D+00  0.0000000000000D+00
   169  1.6800000000000D+00  0.0000000000000D+00  0.0000000000000D+00
   170  1.6900000000000D+00  0.0000000000000D+00  0.0000000000000D+00
   171  1.7000000000000D+00  0.0000000000000D+00  0.0000000000000D+00
   172  1.7100000000000D+00  0.0000000000000D+00  0.0000000000000D+00
   173  1.7200000000000D+00  0.0000000000000D+00  0.0000000000000D+00
   174  1.7300000000000D+00  0.0000000000000D+00  0.0000000000000D+00
   175  1.7400000000000D+00  0.0000000000000D+00  0.0000000000000D+00
   176  1.7500000000000D+00  0.0000000000000D+00  0.0000000000000D+00
   177  1.7600000000000D+00  0.0000000000000D+00  0.0000000000000D+00
   178  1.7700000000000D+00  0.0000000000000D+00  0.0000000000000D+00
   179  1.7800000000000D+00  0.0000000000000D+00  0.0000000000000D+00
   180  1.7900000000000D+00  0.0000000000000D+00  0.0000000000000D+00
   181  1.8000000000000D+00  0.0000000000000D+00  0.0000000000000D+00
   182  1.8100000000000D+00  0.0000000000000D+00  0.0000000000000D+00
   183  1.8200000000000D+00  0.0000000000000D+00  0.0000000000000D+00
   184  1.8300000000000D+00  0.0000000000000D+00  0.0000000000000D+00
   185  1.8400000000000D+00  0.0000000000000D+00  0.0000000000000D+00
   186  1.8500000000000D+00  0.0000000000000D+00  0.0000000000000D+00
   187  1.8600000000000D+00  0.0000000000000D+00  0.0000000000000D+00
   188  1.8700000000000D+00  0.0000000000000D+00  0.0000000000000D+00
   189  1.8800000000000D+00  0.0000000000000D+00  0.0000000000000D+00
   190  1.8900000000000D+00  0.0000000000000D+00  0.0000000000000D+00
   191  1.9000000000000D+00  0.0000000000000D+00  0.0000000000000D+00
   192  1.9100000000000D+00  0.0000000000000D+00  0.0000000000000D+00
   193  1.9200000000000D+00  0.0000000000000D+00  0.0000000000000D+00
   194  1.9300000000000D+00  0.0000000000000D+00  0.0000000000000D+00
   195  1.9400000000000D+00  0.0000000000000D+00  0.0000000000000D+00
   196  1.9500000000000D+00  0.0000000000000D+00  0.0000000000000D+00
   197  1.9600000000000D+00  0.0000000000000D+00  0.0000000000000D+00
   198  1.9700000000000D+00  0.0000000000000D+00  0.0000000000000D+00
   199  1.9800000000000D+00  0.0000000000000D+00  0.0000000000000D+00
   200  1.9900000000000D+00  0.0000000000000D+00  0.0000000000000D+00
   201  2.0000000000000D+00  0.0000000000000D+00  0.0000000000000D+00
   202  2.0100000000000D+00  0.0000000000000D+00  0.0000000000000D+00
   203  2.0200000000000D+00  0.0000000000000D+00  0.0000000000000D+00
   204  2.0300000000000D+00  0.0000000000000D+00  0.0000000000000D+00
   205  2.0400000000000D+00  0.0000000000000D+00  0.0000000000000D+00
   206  2.0500000000000D+00  0.0000000000000D+00  0.0000000000000D+00
   207  2.0600000000000D+00  0.0000000000000D+00  0.0000000000000D+00
   208  2.0700000000000D+00  0.0000000000000D+00  0.0000000000000D+00
   209  2.0800000000000D+00  0.0000000000000D+00  0.0000000000000D+00
   210  2.0900000000000D+00  0.0000000000000D+00  0.0000000000000D+00
   211  2.1000000000000D+00  0.0000000000000D+00  0.0000000000000D+00
   212  2.1100000000000D+00  0.0000000000000D+00  0.0000000000000D+00
   213  2.1200000000000D+00  0.0000000000000D+00  0.0000000000000D+00
   214  2.1300000000000D+00  0.0000000000000D+00  0.0000000000000D+00
   215  2.1400000000000D+00  0.0000000000000D+00  0.0000000000000D+00
   216  2.1500000000000D+00  0.0000000000000D+00  0.0000000000000D+00
   217  2.1600000000000D+00  0.0000000000000D+00  0.0000000000000D+00
   218  2.1700000000000D+00  0.0000000000000D+00  0.0000000000000D+00
   219  2.1800000000000D+00  0.0000000000000D+00  0.0000000000000D+00
   220  2.1900000000000D+00  0.0000000000000D+00  0.0000000000000D+00
   221  2.2000000000000D+00  0.0000000000000D+00  0.0000000000000D+00
   222  2.2100000000000D+00  0.0000000000000D+00  0.0000000000000D+00
   223  2.2200000000000D+00  0.0000000000000D+00  0.0000000000000D+00
   224  2.2300000000000D+00  0.0000000000000D+00  0.0000000000000D+00
   225  2.2400000000000D+00  0.0000000000000D+00  0.0000000000000D+00
   226  2.2500000000000D+00  0.0000000000000D+00  0.0000000000000D+00
   227  2.2600000000000D+00  0.0000000000000D+00  0.0000000000000D+00
   228  2.2700000000000D+00  0.0000000000000D+00  0.0000000000000D+00
   229  2.2800000000000D+00  0.0000000000000D+00  0.0000000000000D+00
   230  2.2900000000000D+00  0.0000000000000D+00  0.0000000000000D+00
   231  2.3000000000000D+00  0.0000000000000D+00  0.0000000000000D+00
   232  2.3100000000000D+00  0.0000000000000D+00  0.0000000000000D+00
   233  2.3200000000000D+00  0.0000000000000D+00  0.0000000000000D+00
   234  2.3300000000000D+00  0.0000000000000D+00  0.0000000000000D+00
   235  2.3400000000000D+00  0.0000000000000D+00  0.0000000000000D+00
   236  2.3500000000000D+00  0.0000000000000D+00  0.0000000000000D+00
   237  2.3600000000000D+00  0.0000000000000D+00  0.0000000000000D+00
   238  2.3700000000000D+00  0.0000000000000D+00  0.0000000000000D+00
   239  2.3800000000000D+00  0.0000000000000D+00  0.0000000000000D+00
   240  2.3900000000000D+00  0.0000000000000D+00  0.0000000000000D+00
   241  2.4000000000000D+00  0.0000000000000D+00  0.0000000000000D+00
   242  2.4100000000000D+00  0.0000000000000D+00  0.0000000000000D+00
   243  2.4200000000000D+00  0.0000000000000D+00  0.0000000000000D+00
   244  2.4300000000000D+00  0.0000000000000D+00  0.0000000000000D+00
   245  2.4400000000000D+00  0.0000000000000D+00  0.0000000000000D+00
   246  2.4500000000000D+00  0.0000000000000D+00  0.0000000000000D+00
   247  2.4600000000000D+00  0.0000000000000D+00  0.0000000000000D+00
   248  2.4700000000000D+00  0.0000000000000D+00  0.0000000000000D+00
   249  2.4800000000000D+00  0.0000000000000D+00  0.0000000000000D+00
   250  2.4900000000000D+00  0.0000000000000D+00  0.0000000000000D+00
   251  2.5000000000000D+00  0.0000000000000D+00  0.0000000000000D+00
   252  2.5100000000000D+00  0.0000000000000D+00  0.0000000000000D+00
   253  2.5200000000000D+00  0.0000000000000D+00  0.0000000000000D+00
   254  2.5300000000000D+00  0.0000000000000D+00  0.0000000000000D+00
   255  2.5400000000000D+00  0.0000000000000D+00  0.0000000000000D+00
   256  2.5500000000000D+00  0.0000000000000D+00  0.0000000000000D+00
   257  2.5600000000000D+00  0.0000000000000D+00  0.0000000000000D+00
   258  2.5700000000000D+00  0.0000000000000D+00  0.0000000000000D+00
   259  2.5800000000000D+00  0.0000000000000D+00  0.0000000000000D+00
   260  2.5900000000000D+00  0.0000000000000D+00  0.0000000000000D+00
   261  2.6000000000000D+00  0.0000000000000D+00  0.0000000000000D+00
   262  2.6100000000000D+00  0.0000000000000D+00  0.0000000000000D+00
   263  2.6200000000000D+00  0.0000000000000D+00  0.0000000000000D+00
   264  2.6300000000000D+00  0.0000000000000D+00  0.0000000000000D+00
   265  2.6400000000000D+00  0.0000000000000D+00  0.0000000000000D+00
   266  2.6500000000000D+00  0.0000000000000D+00  0.0000000000000D+00
   267  2.6600000000000D+00  0.0000000000000D+00  0.0000000000000D+00
   268  2.6700000000000D+00  0.0000000000000D+00  0.0000000000000D+00
   269  2.6800000000000D+00  0.0000000000000D+00  0.0000000000000D+00
   270  2.6900000000000D+00  0.0000000000000D+00  0.0000000000000D+00
   271  2.7000000000000D+00  0.0000000000000D+00  0.0000000000000D+00
   272  2.7100000000000D+00  0.0000000000000D+00  0.0000000000000D+00
   273  2.7200000000000D+00  0.0000000000000D+00  0.0000000000000D+00
   274  2.7300000000000D+00  0.0000000000000D+00  0.0000000000000D+00
   275  2.7400000000000D+00  0.0000000000000D+00  0.0000000000000D+00
   276  2.7500000000000D+00  0.0000000000000D+00  0.0000000000000D+00
   277  2.7600000000000D+00  0.0000000000000D+00  0.0000000000000D+00
   278  2.7700000000000D+00  0.0000000000000D+00  0.0000000000000D+00
   279  2.7800000000000D+00  0.0000000000000D+00  0.0000000000000D+00
   280  2.7900000000000D+00  0.0000000000000D+00  0.0000000000000D+00
   281  2.8000000000000D+00  0.0000000000000D+00  0.0000000000000D+00
   282  2.8100000000000D+00  0.0000000000000D+00  0.0000000000000D+00
   283  2.8200000000000D+00  0.0000000000000D+00  0.0000000000000D+00
   284  2.8300000000000D+00  0.0000000000000D+00  0.0000000000000D+00
   285  2.8400000000000D+00  0.0000000000000D+00  0.0000000000000D+00
   286  2.8500000000000D+00  0.0000000000000D+00  0.0000000000000D+00
   287  2.8600000000000D+00  0.0000000000000D+00  0.0000000000000D+00
   288  2.8700000000000D+00  0.0000000000000D+00  0.0000000000000D+00
   289  2.8800000000000D+00  0.0000000000000D+00  0.0000000000000D+00
   290  2.8900000000000D+00  0.0000000000000D+00  0.0000000000000D+00
   291  2.9000000000000D+00  0.0000000000000D+00  0.0000000000000D+00
   292  2.9100000000000D+00  0.0000000000000D+00  0.0000000000000D+00
   293  2.9200000000000D+00  0.0000000000000D+00  0.0000000000000D+00
   294  2.9300000000000D+00  0.0000000000000D+00  0.0000000000000D+00
   295  2.9400000000000D+00  0.0000000000000D+00  0.0000000000000D+00
   296  2.9500000000000D+00  0.0000000000000D+00  0.0000000000000D+00
   297  2.9600000000000D+00  0.0000000000000D+00  0.0000000000000D+00
   298  2.9700000000000D+00  0.0000000000000D+00  0.0000000000000D+00
   299  2.9800000000000D+00  0.0000000000000D+00  0.0000000000000D+00
   300  2.9900000000000D+00  0.0000000000000D+00  0.0000000000000D+00
   301  3.0000000000000D+00  0.0000000000000D+00  0.0000000000000D+00
   302  3.0100000000000D+00  0.0000000000000D+00  0.0000000000000D+00
   303  3.0200000000000D+00  0.0000000000000D+00  0.0000000000000D+00
   304  3.0300000000000D+00  0.0000000000000D+00  0.0000000000000D+00
   305  3.0400000000000D+00  0.0000000000000D+00  0.0000000000000D+00
   306  3.0500000000000D+00  0.0000000000000D+00  0.0000000000000D+00
   307  3.0600000000000D+00  0.0000000000000D+00  0.0000000000000D+00
   308  3.0700000000000D+00  0.0000000000000D+00  0.0000000000000D+00
   309  3.0800000000000D+00  0.0000000000000D+00  0.0000000000000D+00
   310  3.0900000000000D+00  0.0000000000000D+00  0.0000000000000D+00
   311  3.1000000000000D+00  0.0000000000000D+00  0.0000000000000D+00
   312  3.1100000000000D+00  0.0000000000000D+00  0.0000000000000D+00
   313  3.1200000000000D+00  0.0000000000000D+00  0.0000000000000D+00
   314  3.1300000000000D+00  0.0000000000000D+00  0.0000000000000D+00
   315  3.1400000000000D+00  0.0000000000000D+00  0.0000000000000D+00
   316  3.1500000000000D+00  0.0000000000000D+00  0.0000000000000D+00
   317  3.1600000000000D+00  0.0000000000000D+00  0.0000000000000D+00
   318  3.1700000000000D+00  0.0000000000000D+00  0.0000000000000D+00
   319  3.1800000000000D+00  0.0000000000000D+00  0.0000000000000D+00
   320  3.1900000000000D+00  0.0000000000000D+00  0.0000000000000D+00
   321  3.2000000000000D+00  0.0000000000000D+00  0.0000000000000D+00
   322  3.2100000000000D+00  0.0000000000000D+00  0.0000000000000D+00
   323  3.2200000000000D+00  0.0000000000000D+00  0.0000000000000D+00
   324  3.2300000000000D+00  0.0000000000000D+00  0.0000000000000D+00
   325  3.2400000000000D+00  0.0000000000000D+00  0.0000000000000D+00
   326  3.2500000000000D+00  0.0000000000000D+00  0.0000000000000D+00
   327  3.2600000000000D+00  0.0000000000000D+00  0.0000000000000D+00
   328  3.2700000000000D+00  0.0000000000000D+00  0.0000000000000D+00
   329  3.2800000000000D+00  0.0000000000000D+00  0.0000000000000D+00
   330  3.2900000000000D+00  0.0000000000000D+00  0.0000000000000D+00
   331  3.3000000000000D+00  0.0000000000000D+00  0.0000000000000D+00
   332  3.3100000000000D+00  0.0000000000000D+00  0.0000000000000D+00
   333  3.3200000000000D+00  0.0000000000000D+00  0.0000000000000D+00
   334  3.3300000000000D+00  0.0000000000000D+00  0.0000000000000D+00
   335  3.3400000000000D+00  0.0000000000000D+00  0.0000000000000D+00
   336  3.3500000000000D+00  0.0000000000000D+00  0.0000000000000D+00
   337  3.3600000000000D+00  0.0000000000000D+00  0.0000000000000D+00
   338  3.3700000000000D+00  0.0000000000000D+00  0.0000000000000D+00
   339  3.3800000000000D+00  0.0000000000000D+00  0.0000000000000D+00
   340  3.3900000000000D+00  0.0000000000000D+00  0.0000000000000D+00
   341  3.4000000000000D+00  0.0000000000000D+00  0.0000000000000D+00
   342  3.4100000000000D+00  0.0000000000000D+00  0.0000000000000D+00
   343  3.4200000000000D+00  0.0000000000000D+00  0.0000000000000D+00
   344  3.4300000000000D+00  0.0000000000000D+00  0.0000000000000D+00
   345  3.4400000000000D+00  0.0000000000000D+00  0.0000000000000D+00
   346  3.4500000000000D+00  0.0000000000000D+00  0.0000000000000D+00
   347  3.4600000000000D+00  0.0000000000000D+00  0.0000000000000D+00
   348  3.4700000000000D+00  0.0000000000000D+00  0.0000000000000D+00
   349  3.4800000000000D+00  0.0000000000000D+00  0.0000000000000D+00
   350  3.4900000000000D+00  0.0000000000000D+00  0.0000000000000D+00
   351  3.5000000000000D+00  0.0000000000000D+00  0.0000000000000D+00
   352  3.5100000000000D+00  0.0000000000000D+00  0.0000000000000D+00
   353  3.5200000000000D+00  0.0000000000000D+00  0.0000000000000D+00
   354  3.5300000000000D+00  0.0000000000000D+00  0.0000000000000D+00
   355  3.5400000000000D+00  0.0000000000000D+00  0.0000000000000D+00
   356  3.5500000000000D+00  0.0000000000000D+00  0.0000000000000D+00
   357  3.5600000000000D+00  0.0000000000000D+00  0.0000000000000D+00
   358  3.5700000000000D+00  0.0000000000000D+00  0.0000000000000D+00
   359  3.5800000000000D+00  0.0000000000000D+00  0.0000000000000D+00
   360  3.5900000000000D+00  0.0000000000000D+00  0.0000000000000D+00
   361  3.6000000000000D+00  0.0000000000000D+00  0.0000000000000D+00
   362  3.6100000000000D+00  0.0000000000000D+00  0.0000000000000D+00
   363  3.6200000000000D+00  0.0000000000000D+00  0.0000000000000D+00
   364  3.6300000000000D+00  0.0000000000000D+00  0.0000000000000D+00
   365  3.6400000000000D+00  0.0000000000000D+00  0.0000000000000D+00
   366  3.6500000000000D+00  0.0000000000000D+00  0.0000000000000D+00
   367  3.6600000000000D+00  0.0000000000000D+00  0.0000000000000D+00
   368  3.6700000000000D+00  0.0000000000000D+00  0.0000000000000D+00
   369  3.6800000000000D+00  0.0000000000000D+00  0.0000000000000D+00
   370  3.6900000000000D+00  0.0000000000000D+00  0.0000000000000D+00
   371  3.7000000000000D+00  0.0000000000000D+00  0.0000000000000D+00
   372  3.7100000000000D+00  0.0000000000000D+00  0.0000000000000D+00
   373  3.7200000000000D+00  0.0000000000000D+00  0.0000000000000D+00
   374  3.7300000000000D+00  0.0000000000000D+00  0.0000000000000D+00
   375  3.7400000000000D+00  0.0000000000000D+00  0.0000000000000D+00
   376  3.7500000000000D+00  0.0000000000000D+00  0.0000000000000D+00
   377  3.7600000000000D+00  0.0000000000000D+00  0.0000000000000D+00
   378  3.7700000000000D+00  0.0000000000000D+00  0.0000000000000D+00
   379  3.7800000000000D+00  0.0000000000000D+00  0.0000000000000D+00
   380  3.7900000000000D+00  0.0000000000000D+00  0.0000000000000D+00
   381  3.8000000000000D+00  0.0000000000000D+00  0.0000000000000D+00
   382  3.8100000000000D+00  0.0000000000000D+00  0.0000000000000D+00
   383  3.8200000000000D+00  0.0000000000000D+00  0.0000000000000D+00
   384  3.8300000000000D+00  0.0000000000000D+00  0.0000000000000D+00
   385  3.8400000000000D+00  0.0000000000000D+00  0.0000000000000D+00
   386  3.8500000000000D+00  0.0000000000000D+00  0.0000000000000D+00
   387  3.8600000000000D+00  0.0000000000000D+00  0.0000000000000D+00
   388  3.8700000000000D+00  0.0000000000000D+00  0.0000000000000D+00
   389  3.8800000000000D+00  0.0000000000000D+00  0.0000000000000D+00
   390  3.8900000000000D+00  0.0000000000000D+00  0.0000000000000D+00
   391  3.9000000000000D+00  0.0000000000000D+00  0.0000000000000D+00
   392  3.9100000000000D+00  0.0000000000000D+00  0.0000000000000D+00
   393  3.9200000000000D+00  0.0000000000000D+00  0.0000000000000D+00
   394  3.9300000000000D+00  0.0000000000000D+00  0.0000000000000D+00
   395  3.9400000000000D+00  0.0000000000000D+00  0.0000000000000D+00
   396  3.9500000000000D+00  0.0000000000000D+00  0.0000000000000D+00
   397  3.9600000000000D+00  0.0000000000000D+00  0.0000000000000D+00
   398  3.9700000000000D+00  0.0000000000000D+00  0.0000000000000D+00
   399  3.9800000000000D+00  0.0000000000000D+00  0.0000000000000D+00
   400  3.9900000000000D+00  0.0000000000000D+00  0.0000000000000D+00
   401  4.0000000000000D+00  0.0000000000000D+00  0.0000000000000D+00
   402  4.0100000000000D+00  0.0000000000000D+00  0.0000000000000D+00
   403  4.0200000000000D+00  0.0000000000000D+00  0.0000000000000D+00
   404  4.0300000000000D+00  0.0000000000000D+00  0.0000000000000D+00
   405  4.0400000000000D+00  0.0000000000000D+00  0.0000000000000D+00
   406  4.0500000000000D+00  0.0000000000000D+00  0.0000000000000D+00
   407  4.0600000000000D+00  0.0000000000000D+00  0.0000000000000D+00
   408  4.0700000000000D+00  0.0000000000000D+00  0.0000000000000D+00
   409  4.0800000000000D+00  0.0000000000000D+00  0.0000000000000D+00
   410  4.0900000000000D+00  0.0000000000000D+00  0.0000000000000D+00
   411  4.1000000000000D+00  0.0000000000000D+00  0.0000000000000D+00
   412  4.1100000000000D+00  0.0000000000000D+00  0.0000000000000D+00
   413  4.1200000000000D+00  0.0000000000000D+00  0.0000000000000D+00
   414  4.1300000000000D+00  0.0000000000000D+00  0.0000000000000D+00
   415  4.1400000000000D+00  0.0000000000000D+00  0.0000000000000D+00
   416  4.1500000000000D+00  0.0000000000000D+00  0.0000000000000D+00
   417  4.1600000000000D+00  0.0000000000000D+00  0.0000000000000D+00
   418  4.1700000000000D+00  0.0000000000000D+00  0.0000000000000D+00
   419  4.1800000000000D+00  0.0000000000000D+00  0.0000000000000D+00
   420  4.1900000000000D+00  0.0000000000000D+00  0.0000000000000D+00
   421  4.2000000000000D+00  0.0000000000000D+00  0.0000000000000D+00
   422  4.2100000000000D+00  0.0000000000000D+00  0.0000000000000D+00