Si    ONCVPSP-3.3.0  r_core=   1.60303   1.72197   1.91712
     14.0000      4.0000      220408    zatom,zion,pspd
     8       2   2     4   600     0    pspcod,pspxc,lmax,lloc,mmax,r2well
  5.99000000  0.00000000  0.00000000    rchrg fchrg qchrg
     2     2     2     0     0    nproj
     1     1           extension_switch
   0                         5.5660323221723D+00  8.5715436976878D-01
     1  0.0000000000000D+00 -5.2078562573499D-09  1.2384812855815D-08
     2  1.0000000000000D-02  3.2070338651392D-02 -1.0939995508904D-02
     3  2.0000000000000D-02  6.3897625486301D-02 -2.1321397785104D-02
     4  3.0000000000000D-02  9.5243342083608D-02 -3.0596425828082D-02
     5  4.0000000000000D-02  1.2587795697178D-01 -3.8238733185098D-02
     6  5.0000000000000D-02  1.5558522085882D-01 -4.3753653663250D-02
     7  6.0000000000000D-02  1.8416622774834D-01 -4.6687890156486D-02
     8  7.0000000000000D-02  2.1144317013601D-01 -4.6638475780285D-02
     9  8.0000000000000D-02  2.3726272168842D-01 -4.3260848891481D-02
    10  9.0000000000000D-02  2.6149898715134D-01 -3.6275898659154D-02
    11  1.0000000000000D-01  2.8405596661013D-01 -2.5475855392551D-02
    12  1.1000000000000D-01  3.0486948950864D-01 -1.0728919530170D-02
    13  1.2000000000000D-01  3.2390858288574D-01  8.0174552788247D-03
    14  1.3000000000000D-01  3.4117624795936D-01  3.0734686574326D-02
    15  1.4000000000000D-01  3.5670962931416D-01  5.7312632461200D-02
    16  1.5000000000000D-01  3.7057957136168D-01  8.7560618698635D-02
    17  1.6000000000000D-01  3.8288956726554D-01  1.2120991121864D-01
    18  1.7000000000000D-01  3.9377411598288D-01  1.5791759692515D-01
    19  1.8000000000000D-01  4.0339651329004D-01  1.9727181133596D-01
    20  1.9000000000000D-01  4.1194611246378D-01  2.3879822832669D-01
    21  2.0000000000000D-01  4.1963509951316D-01  2.8196770531136D-01
    22  2.1000000000000D-01  4.2669483634511D-01  3.2620495702145D-01
    23  2.2000000000000D-01  4.3337183285481D-01  3.7089811296668D-01
    24  2.3000000000000D-01  4.3992341552979D-01  4.1540899798512D-01
    25  2.4000000000000D-01  4.4661316563069D-01  4.5908396228835D-01
    26  2.5000000000000D-01  4.5370620426766D-01  5.0126507730389D-01
    27  2.6000000000000D-01  4.6146440465334D-01  5.4130150658967D-01
    28  2.7000000000000D-01  4.7014161342863D-01  5.7856085727292D-01
    29  2.8000000000000D-01  4.7997896319442D-01  6.1244031691921D-01
    30  2.9000000000000D-01  4.9120035723251D-01  6.4237738349007D-01
    31  3.0000000000000D-01  5.0400820487752D-01  6.6786000206019D-01
    32  3.1000000000000D-01  5.1857948214484D-01  6.8843593115148D-01
    33  3.2000000000000D-01  5.3506218708931D-01  7.0372117375594D-01
    34  3.3000000000000D-01  5.5357225304509D-01  7.1340732316962D-01
    35  3.4000000000000D-01  5.7419097548098D-01  7.1726769140437D-01
    36  3.5000000000000D-01  5.9696299981800D-01  7.1516210789608D-01
    37  3.6000000000000D-01  6.2189490833179D-01  7.0704029816468D-01
    38  3.7000000000000D-01  6.4895443435520D-01  6.9294377563902D-01
    39  3.8000000000000D-01  6.7807032156570D-01  6.7300620465768D-01
    40  3.9000000000000D-01  7.0913283536285D-01  6.4745221827828D-01
    41  4.0000000000000D-01  7.4199492239030D-01  6.1659470055245D-01
    42  4.1000000000000D-01  7.7647400331629D-01  5.8083056891795D-01
    43  4.2000000000000D-01  8.1235437324041D-01  5.4063511788562D-01
    44  4.3000000000000D-01  8.4939017372169D-01  4.9655500983224D-01
    45  4.4000000000000D-01  8.8730889059850D-01  4.4920002203283D-01
    46  4.5000000000000D-01  9.2581532266182D-01  3.9923368068202D-01
    47  4.6000000000000D-01  9.6459595800425D-01  3.4736293219680D-01
    48  4.7000000000000D-01  1.0033236876397D+00  2.9432701922220D-01
    49  4.8000000000000D-01  1.0416627798990D+00  2.4088574318327D-01
    50  4.9000000000000D-01  1.0792740342616D+00  1.8780730668343D-01
    51  5.0000000000000D-01  1.1158200297678D+00  1.3585593733609D-01
    52  5.1000000000000D-01  1.1509703810428D+00  8.5779499578346D-02
    53  5.2000000000000D-01  1.1844069142816D+00  3.8297302551963D-02
    54  5.3000000000000D-01  1.2158286763316D+00 -5.9116898029601D-03
    55  5.4000000000000D-01  1.2449566922396D+00 -4.6220045679085D-02
    56  5.5000000000000D-01  1.2715383902951D+00 -8.2062257389544D-02
    57  5.6000000000000D-01  1.2953516186325D+00 -1.1294415847602D-01
    58  5.7000000000000D-01  1.3162081837823D+00 -1.3845120112513D-01
    59  5.8000000000000D-01  1.3339568490976D+00 -1.5825544706520D-01
    60  5.9000000000000D-01  1.3484857395789D+00 -1.7212114562709D-01
    61  6.0000000000000D-01  1.3597241091917D+00 -1.7990879546468D-01
    62  6.1000000000000D-01  1.3676434371061D+00 -1.8157761106522D-01
    63  6.2000000000000D-01  1.3722578302606D+00 -1.7718634130637D-01
    64  6.3000000000000D-01  1.3736237211025D+00 -1.6689241458642D-01
    65  6.4000000000000D-01  1.3718388609847D+00 -1.5094941272402D-01
    66  6.5000000000000D-01  1.3670406215173D+00 -1.2970290394213D-01
    67  6.6000000000000D-01  1.3594036277746D+00 -1.0358469284218D-01
    68  6.7000000000000D-01  1.3491367585517D+00 -7.3105572119078D-02
    69  6.8000000000000D-01  1.3364795597248D+00 -3.8846686577255D-02
    70  6.9000000000000D-01  1.3216981268642D+00 -1.4496439649309D-03
    71  7.0000000000000D-01  1.3050805225122D+00  3.8394470857241D-02
    72  7.1000000000000D-01  1.2869318017996D+00  7.9957002330932D-02
    73  7.2000000000000D-01  1.2675687271650D+00  1.2248435830557D-01
    74  7.3000000000000D-01  1.2473142587419D+00  1.6521116525183D-01
    75  7.4000000000000D-01  1.2264919113970D+00  2.0737372757005D-01
    76  7.5000000000000D-01  1.2054200723502D+00  2.4822356708855D-01
    77  7.6000000000000D-01  1.1844063747286D+00  2.8704081557525D-01
    78  7.7000000000000D-01  1.1637422222569D+00  3.2314723356550D-01
    79  7.8000000000000D-01  1.1436975585693D+00  3.5591863302219D-01
    80  7.9000000000000D-01  1.1245159713545D+00  3.8479648926154D-01
    81  8.0000000000000D-01  1.1064102167604D+00  4.0929853909786D-01
    82  8.1000000000000D-01  1.0895582432546D+00  4.2902817711934D-01
    83  8.2000000000000D-01  1.0740997865473D+00  4.4368248018679D-01
    84  8.3000000000000D-01  1.0601335983653D+00  4.5305871137169D-01
    85  8.4000000000000D-01  1.0477153619320D+00  4.5705917829921D-01
    86  8.5000000000000D-01  1.0368563361296D+00  4.5569434686593D-01
    87  8.6000000000000D-01  1.0275227586638D+00  4.4908413915321D-01
    88  8.7000000000000D-01  1.0196360262939D+00  4.3745737361708D-01
    89  8.8000000000000D-01  1.0130736575374D+00  4.2114933583472D-01
    90  8.9000000000000D-01  1.0076710304098D+00  4.0059749874596D-01
    91  9.0000000000000D-01  1.0032238749168D+00  3.7633544194527D-01
    92  9.1000000000000D-01  9.9949148739822D-01  3.4898504966109D-01
    93  9.2000000000000D-01  9.9620062162824D-01  3.1924709611032D-01
    94  9.3000000000000D-01  9.9305000001158D-01  2.8789035445681D-01
    95  9.4000000000000D-01  9.8971537746972D-01  2.5573939117566D-01
    96  9.5000000000000D-01  9.8585508086727D-01  2.2366123080005D-01
    97  9.6000000000000D-01  9.8111593825070D-01  1.9255109640965D-01
    98  9.7000000000000D-01  9.7513950491034D-01  1.6331744845463D-01
    99  9.8000000000000D-01  9.6756848743346D-01  1.3686655835009D-01
   100  9.9000000000000D-01  9.5805326272361D-01  1.1408686318032D-01
   101  1.0000000000000D+00  9.4625838618087D-01  9.5833354372893D-02
   102  1.0100000000000D+00  9.3186898238379D-01  8.2912255132653D-02
   103  1.0200000000000D+00  9.1459691232117D-01  7.6066239623280D-02
   104  1.0300000000000D+00  8.9418661366154D-01  7.5960440951188D-02
   105  1.0400000000000D+00  8.7042051481093D-01  8.3169484720714D-02
   106  1.0500000000000D+00  8.4312392919450D-01  9.8165771258213D-02
   107  1.0600000000000D+00  8.1216934334285D-01  1.2130921244726D-01
   108  1.0700000000000D+00  7.7748002159756D-01  1.5283860697913D-01
   109  1.0800000000000D+00  7.3903285988990D-01  1.9286481473204D-01
   110  1.0900000000000D+00  6.9686043286593D-01  2.4136586269734D-01
   111  1.1000000000000D+00  6.5105219024265D-01  2.9818408708916D-01
   112  1.1100000000000D+00  6.0175477138307D-01  3.6302538493298D-01
   113  1.1200000000000D+00  5.4917142153905D-01  4.3546061385873D-01
   114  1.1300000000000D+00  4.9356050654404D-01  5.1492914695952D-01
   115  1.1400000000000D+00  4.3523313762691D-01  6.0074455400756D-01
   116  1.1500000000000D+00  3.7454993015249D-01  6.9210235133269D-01
   117  1.1600000000000D+00  3.1191693730050D-01  7.8808972158929D-01
   118  1.1700000000000D+00  2.4778081100338D-01  8.8769707764925D-01
   119  1.1800000000000D+00  1.8262325498504D-01  9.8983131498045D-01
   120  1.1900000000000D+00  1.1695484661234D-01  1.0933305685553D+00
   121  1.2000000000000D+00  5.1308316446284D-02  1.1969802613102D+00
   122  1.2100000000000D+00 -1.3768617418568D-02  1.2995302116509D+00
   123  1.2200000000000D+00 -7.7720757285924D-02  1.3997125535468D+00
   124  1.2300000000000D+00 -1.3999316226707D-01  1.4962601969463D+00
   125  1.2400000000000D+00 -2.0003899842590D-01  1.5879255540381D+00
   126  1.2500000000000D+00 -2.5732738446602D-01  1.6734992486915D+00
   127  1.2600000000000D+00 -3.1135111165491D-01  1.7518285190792D+00
   128  1.2700000000000D+00 -3.6163412065029D-01  1.8218350330628D+00
   129  1.2800000000000D+00 -4.0773861860234D-01  1.8825318376484D+00
   130  1.2900000000000D+00 -4.4927172274624D-01  1.9330391707129D+00
   131  1.3000000000000D+00 -4.8589152943412D-01  1.9725988937273D+00
   132  1.3100000000000D+00 -5.1731250743473D-01  2.0005873039192D+00
   133  1.3200000000000D+00 -5.4331012620536D-01  2.0165261128118D+00
   134  1.3300000000000D+00 -5.6372465067588D-01  2.0200914279324D+00
   135  1.3400000000000D+00 -5.7846402589097D-01  2.0111205548867D+00
   136  1.3500000000000D+00 -5.8750580602023D-01  1.9896165115961D+00
   137  1.3600000000000D+00 -5.9089809833862D-01  1.9557501849515D+00
   138  1.3700000000000D+00 -5.8875947852894D-01  1.9098600260902D+00
   139  1.3800000000000D+00 -5.8127789330172D-01  1.8524493231308D+00
   140  1.3900000000000D+00 -5.6870854586859D-01  1.7841810412564D+00
   141  1.4000000000000D+00 -5.5137078266236D-01  1.7058702747238D+00
   142  1.4100000000000D+00 -5.2964404170820D-01  1.6184744557512D+00
   143  1.4200000000000D+00 -5.0396288512732D-01  1.5230813746303D+00
   144  1.4300000000000D+00 -4.7481121024918D-01  1.4208952374431D+00
   145  1.4400000000000D+00 -4.4271570536337D-01  1.3132209197732D+00
   146  1.4500000000000D+00 -4.0823863853594D-01  1.2014466283433D+00
   147  1.4600000000000D+00 -3.7197009901774D-01  1.0870252567251D+00
   148  1.4700000000000D+00 -3.3451977652986D-01  9.7145463956718D-01
   149  1.4800000000000D+00 -2.9650842184313D-01  8.5625704849804D-01
   150  1.4900000000000D+00 -2.5855909252872D-01  7.4295817850399D-01
   151  1.5000000000000D+00 -2.2128832435013D-01  6.3306596090828D-01
   152  1.5100000000000D+00 -1.8529734535792D-01  5.2804948308505D-01
   153  1.5200000000000D+00 -1.5116347617983D-01  4.2931835831485D-01
   154  1.5300000000000D+00 -1.1943181860516D-01  3.3820278994723D-01
   155  1.5400000000000D+00 -9.0607388885842D-02  2.5593470422361D-01
   156  1.5500000000000D+00 -6.5157037611543D-02  1.8365614006551D-01
   157  1.5600000000000D+00 -4.3472155183580D-02  1.2231730644398D-01
   158  1.5700000000000D+00 -2.5801631098138D-02  7.2491268154674D-02
   159  1.5800000000000D+00 -1.2600738894654D-02  3.5353581291608D-02
   160  1.5900000000000D+00 -4.3768213232993D-03  1.2250527416926D-02
   161  1.6000000000000D+00 -5.3540803726455D-04  1.4720277796577D-03
   162  1.6100000000000D+00  4.2473020396718D-04 -1.2084967984293D-03
   163  1.6200000000000D+00  1.0755944650226D-04 -3.0410504297494D-04
   164  1.6300000000000D+00 -1.3211935576341D-04  3.7327672282111D-04
   165  1.6400000000000D+00 -3.2279609651563D-05  9.1114976031518D-05
   166  1.6500000000000D+00  2.3750123545093D-05 -6.7319061898598D-05
   167  1.6600000000000D+00  5.1493148085569D-06 -1.4587434129621D-05
   168  1.6700000000000D+00  5.0901523932142D-08 -6.5468820775974D-08
   169  1.6800000000000D+00  1.0379810419602D-08 -1.3350365481305D-08
   170  1.6900000000000D+00  0.0000000000000D+00  0.0000000000000D+00
   171  1.7000000000000D+00  0.0000000000000D+00  0.0000000000000D+00
   172  1.7100000000000D+00  0.0000000000000D+00  0.0000000000000D+00
   173  1.7200000000000D+00  0.0000000000000D+00  0.0000000000000D+00
   174  1.7300000000000D+00  0.0000000000000D+00  0.0000000000000D+00
   175  1.7400000000000D+00  0.0000000000000D+00  0.0000000000000D+00
   176  1.7500000000000D+00  0.0000000000000D+00  0.0000000000000D+00
   177  1.7600000000000D+00  0.0000000000000D+00  0.0000000000000D+00
   178  1.7700000000000D+00  0.0000000000000D+00  0.0000000000000D+00
   179  1.7800000000000D+00  0.0000000000000D+00  0.0000000000000D+00
   180  1.7900000000000D+00  0.0000000000000D+00  0.0000000000000D+00
   181  1.8000000000000D+00  0.0000000000000D+00  0.0000000000000D+00
   182  1.8100000000000D+00  0.0000000000000D+00  0.0000000000000D+00
   183  1.8200000000000D+00  0.0000000000000D+00  0.0000000000000D+00
   184  1.8300000000000D+00  0.0000000000000D+00  0.0000000000000D+00
   185  1.8400000000000D+00  0.0000000000000D+00  0.0000000000000D+00
   186  1.8500000000000D+00  0.0000000000000D+00  0.0000000000000D+00
   187  1.8600000000000D+00  0.0000000000000D+00  0.0000000000000D+00
   188  1.8700000000000D+00  0.0000000000000D+00  0.0000000000000D+00
   189  1.8800000000000D+00  0.0000000000000D+00  0.0000000000000D+00
   190  1.8900000000000D+00  0.0000000000000D+00  0.0000000000000D+00
   191  1.9000000000000D+00  0.0000000000000D+00  0.0000000000000D+00
   192  1.9100000000000D+00  0.0000000000000D+00  0.0000000000000D+00
   193  1.9200000000000D+00  0.0000000000000D+00  0.0000000000000D+00
   194  1.9300000000000D+00  0.0000000000000D+00  0.0000000000000D+00
   195  1.9400000000000D+00  0.0000000000000D+00  0.0000000000000D+00
   196  1.9500000000000D+00  0.0000000000000D+00  0.0000000000000D+00
   197  1.9600000000000D+00  0.0000000000000D+00  0.0000000000000D+00
   198  1.9700000000000D+00  0.0000000000000D+00  0.0000000000000D+00
   199  1.9800000000000D+00  0.0000000000000D+00  0.0000000000000D+00
   200  1.9900000000000D+00  0.0000000000000D+00  0.0000000000000D+00
   201  2.0000000000000D+00  0.0000000000000D+00  0.0000000000000D+00
   202  2.0100000000000D+00  0.0000000000000D+00  0.0000000000000D+00
   203  2.0200000000000D+00  0.0000000000000D+00  0.0000000000000D+00
   204  2.0300000000000D+00  0.0000000000000D+00  0.0000000000000D+00
   205  2.0400000000000D+00  0.0000000000000D+00  0.0000000000000D+00
   206  2.0500000000000D+00  0.0000000000000D+00  0.0000000000000D+00
   207  2.0600000000000D+00  0.0000000000000D+00  0.0000000000000D+00
   208  2.0700000000000D+00  0.0000000000000D+00  0.0000000000000D+00
   209  2.0800000000000D+00  0.0000000000000D+00  0.0000000000000D+00
   210  2.0900000000000D+00  0.0000000000000D+00  0.0000000000000D+00
   211  2.1000000000000D+00  0.0000000000000D+00  0.0000000000000D+00
   212  2.1100000000000D+00  0.0000000000000D+00  0.0000000000000D+00
   213  2.1200000000000D+00  0.0000000000000D+00  0.0000000000000D+00
   214  2.1300000000000D+00  0.0000000000000D+00  0.0000000000000D+00
   215  2.1400000000000D+00  0.0000000000000D+00  0.0000000000000D+00
   216  2.1500000000000D+00  0.0000000000000D+00  0.0000000000000D+00
   217  2.1600000000000D+00  0.0000000000000D+00  0.0000000000000D+00
   218  2.1700000000000D+00  0.0000000000000D+00  0.0000000000000D+00
   219  2.1800000000000D+00  0.0000000000000D+00  0.0000000000000D+00
   220  2.1900000000000D+00  0.0000000000000D+00  0.0000000000000D+00
   221  2.2000000000000D+00  0.0000000000000D+00  0.0000000000000D+00
   222  2.2100000000000D+00  0.0000000000000D+00  0.0000000000000D+00
   223  2.2200000000000D+00  0.0000000000000D+00  0.0000000000000D+00
   224  2.2300000000000D+00  0.0000000000000D+00  0.0000000000000D+00
   225  2.2400000000000D+00  0.0000000000000D+00  0.0000000000000D+00
   226  2.2500000000000D+00  0.0000000000000D+00  0.0000000000000D+00
   227  2.2600000000000D+00  0.0000000000000D+00  0.0000000000000D+00
   228  2.2700000000000D+00  0.0000000000000D+00  0.0000000000000D+00
   229  2.2800000000000D+00  0.0000000000000D+00  0.0000000000000D+00
   230  2.2900000000000D+00  0.0000000000000D+00  0.0000000000000D+00
   231  2.3000000000000D+00  0.0000000000000D+00  0.0000000000000D+00
   232  2.3100000000000D+00  0.0000000000000D+00  0.0000000000000D+00
   233  2.3200000000000D+00  0.0000000000000D+00  0.0000000000000D+00
   234  2.3300000000000D+00  0.0000000000000D+00  0.0000000000000D+00
   235  2.3400000000000D+00  0.0000000000000D+00  0.0000000000000D+00
   236  2.3500000000000D+00  0.0000000000000D+00  0.0000000000000D+00
   237  2.3600000000000D+00  0.0000000000000D+00  0.0000000000000D+00
   238  2.3700000000000D+00  0.0000000000000D+00  0.0000000000000D+00
   239  2.3800000000000D+00  0.0000000000000D+00  0.0000000000000D+00
   240  2.3900000000000D+00  0.0000000000000D+00  0.0000000000000D+00
   241  2.4000000000000D+00  0.0000000000000D+00  0.0000000000000D+00
   242  2.4100000000000D+00  0.0000000000000D+00  0.0000000000000D+00
   243  2.4200000000000D+00  0.0000000000000D+00  0.0000000000000D+00
   244  2.4300000000000D+00  0.0000000000000D+00  0.0000000000000D+00
   245  2.4400000000000D+00  0.0000000000000D+00  0.0000000000000D+00
   246  2.4500000000000D+00  0.0000000000000D+00  0.0000000000000D+00
   247  2.4600000000000D+00  0.0000000000000D+00  0.0000000000000D+00
   248  2.4700000000000D+00  0.0000000000000D+00  0.0000000000000D+00
   249  2.4800000000000D+00  0.0000000000000D+00  0.0000000000000D+00
   250  2.4900000000000D+00  0.0000000000000D+00  0.0000000000000D+00
   251  2.5000000000000D+00  0.0000000000000D+00  0.0000000000000D+00
   252  2.5100000000000D+00  0.0000000000000D+00  0.0000000000000D+00
   253  2.5200000000000D+00  0.0000000000000D+00  0.0000000000000D+00
   254  2.5300000000000D+00  0.0000000000000D+00  0.0000000000000D+00
   255  2.5400000000000D+00  0.0000000000000D+00  0.0000000000000D+00
   256  2.5500000000000D+00  0.0000000000000D+00  0.0000000000000D+00
   257  2.5600000000000D+00  0.0000000000000D+00  0.0000000000000D+00
   258  2.5700000000000D+00  0.0000000000000D+00  0.0000000000000D+00
   259  2.5800000000000D+00  0.0000000000000D+00  0.0000000000000D+00
   260  2.5900000000000D+00  0.0000000000000D+00  0.0000000000000D+00
   261  2.6000000000000D+00  0.0000000000000D+00  0.0000000000000D+00
   262  2.6100000000000D+00  0.0000000000000D+00  0.0000000000000D+00
   263  2.6200000000000D+00  0.0000000000000D+00  0.0000000000000D+00
   264  2.6300000000000D+00  0.0000000000000D+00  0.0000000000000D+00
   265  2.6400000000000D+00  0.0000000000000D+00  0.0000000000000D+00
   266  2.6500000000000D+00  0.0000000000000D+00  0.0000000000000D+00
   267  2.6600000000000D+00  0.0000000000000D+00  0.0000000000000D+00
   268  2.6700000000000D+00  0.0000000000000D+00  0.0000000000000D+00
   269  2.6800000000000D+00  0.0000000000000D+00  0.0000000000000D+00
   270  2.6900000000000D+00  0.0000000000000D+00  0.0000000000000D+00
   271  2.7000000000000D+00  0.0000000000000D+00  0.0000000000000D+00
   272  2.7100000000000D+00  0.0000000000000D+00  0.0000000000000D+00
   273  2.7200000000000D+00  0.0000000000000D+00  0.0000000000000D+00
   274  2.7300000000000D+00  0.0000000000000D+00  0.0000000000000D+00
   275  2.7400000000000D+00  0.0000000000000D+00  0.0000000000000D+00
   276  2.7500000000000D+00  0.0000000000000D+00  0.0000000000000D+00
   277  2.7600000000000D+00  0.0000000000000D+00  0.0000000000000D+00
   278  2.7700000000000D+00  0.0000000000000D+00  0.0000000000000D+00
   279  2.7800000000000D+00  0.0000000000000D+00  0.0000000000000D+00
   280  2.7900000000000D+00  0.0000000000000D+00  0.0000000000000D+00
   281  2.8000000000000D+00  0.0000000000000D+00  0.0000000000000D+00
   282  2.8100000000000D+00  0.0000000000000D+00  0.0000000000000D+00
   283  2.8200000000000D+00  0.0000000000000D+00  0.0000000000000D+00
   284  2.8300000000000D+00  0.0000000000000D+00  0.0000000000000D+00
   285  2.8400000000000D+00  0.0000000000000D+00  0.0000000000000D+00
   286  2.8500000000000D+00  0.0000000000000D+00  0.0000000000000D+00
   287  2.8600000000000D+00  0.0000000000000D+00  0.0000000000000D+00
   288  2.8700000000000D+00  0.0000000000000D+00  0.0000000000000D+00
   289  2.8800000000000D+00  0.0000000000000D+00  0.0000000000000D+00
   290  2.8900000000000D+00  0.0000000000000D+00  0.0000000000000D+00
   291  2.9000000000000D+00  0.0000000000000D+00  0.0000000000000D+00
   292  2.9100000000000D+00  0.0000000000000D+00  0.0000000000000D+00
   293  2.9200000000000D+00  0.0000000000000D+00  0.0000000000000D+00
   294  2.9300000000000D+00  0.0000000000000D+00  0.0000000000000D+00
   295  2.9400000000000D+00  0.0000000000000D+00  0.0000000000000D+00
   296  2.9500000000000D+00  0.0000000000000D+00  0.0000000000000D+00
   297  2.9600000000000D+00  0.0000000000000D+00  0.0000000000000D+00
   298  2.9700000000000D+00  0.0000000000000D+00  0.0000000000000D+00
   299  2.9800000000000D+00  0.0000000000000D+00  0.0000000000000D+00
   300  2.9900000000000D+00  0.0000000000000D+00  0.0000000000000D+00
   301  3.0000000000000D+00  0.0000000000000D+00  0.0000000000000D+00
   302  3.0100000000000D+00  0.0000000000000D+00  0.0000000000000D+00
   303  3.0200000000000D+00  0.0000000000000D+00  0.0000000000000D+00
   304  3.0300000000000D+00  0.0000000000000D+00  0.0000000000000D+00
   305  3.0400000000000D+00  0.0000000000000D+00  0.0000000000000D+00
   306  3.0500000000000D+00  0.0000000000000D+00  0.0000000000000D+00
   307  3.0600000000000D+00  0.0000000000000D+00  0.0000000000000D+00
   308  3.0700000000000D+00  0.0000000000000D+00  0.0000000000000D+00
   309  3.0800000000000D+00  0.0000000000000D+00  0.0000000000000D+00
   310  3.0900000000000D+00  0.0000000000000D+00  0.0000000000000D+00
   311  3.1000000000000D+00  0.0000000000000D+00  0.0000000000000D+00
   312  3.1100000000000D+00  0.0000000000000D+00  0.0000000000000D+00
   313  3.1200000000000D+00  0.0000000000000D+00  0.0000000000000D+00
   314  3.1300000000000D+00  0.0000000000000D+00  0.0000000000000D+00
   315  3.1400000000000D+00  0.0000000000000D+00  0.0000000000000D+00
   316  3.1500000000000D+00  0.0000000000000D+00  0.0000000000000D+00
   317  3.1600000000000D+00  0.0000000000000D+00  0.0000000000000D+00
   318  3.1700000000000D+00  0.0000000000000D+00  0.0000000000000D+00
   319  3.1800000000000D+00  0.0000000000000D+00  0.0000000000000D+00
   320  3.1900000000000D+00  0.0000000000000D+00  0.0000000000000D+00
   321  3.2000000000000D+00  0.0000000000000D+00  0.0000000000000D+00
   322  3.2100000000000D+00  0.0000000000000D+00  0.0000000000000D+00
   323  3.2200000000000D+00  0.0000000000000D+00  0.0000000000000D+00
   324  3.2300000000000D+00  0.0000000000000D+00  0.0000000000000D+00
   325  3.2400000000000D+00  0.0000000000000D+00  0.0000000000000D+00
   326  3.2500000000000D+00  0.0000000000000D+00  0.0000000000000D+00
   327  3.2600000000000D+00  0.0000000000000D+00  0.0000000000000D+00
   328  3.2700000000000D+00  0.0000000000000D+00  0.0000000000000D+00
   329  3.2800000000000D+00  0.0000000000000D+00  0.0000000000000D+00
   330  3.2900000000000D+00  0.0000000000000D+00  0.0000000000000D+00
   331  3.3000000000000D+00  0.0000000000000D+00  0.0000000000000D+00
   332  3.3100000000000D+00  0.0000000000000D+00  0.0000000000000D+00
   333  3.3200000000000D+00  0.0000000000000D+00  0.0000000000000D+00
   334  3.3300000000000D+00  0.0000000000000D+00  0.0000000000000D+00
   335  3.3400000000000D+00  0.0000000000000D+00  0.0000000000000D+00
   336  3.3500000000000D+00  0.0000000000000D+00  0.0000000000000D+00
   337  3.3600000000000D+00  0.0000000000000D+00  0.0000000000000D+00
   338  3.3700000000000D+00  0.0000000000000D+00  0.0000000000000D+00
   339  3.3800000000000D+00  0.0000000000000D+00  0.0000000000000D+00
   340  3.3900000000000D+00  0.0000000000000D+00  0.0000000000000D+00
   341  3.4000000000000D+00  0.0000000000000D+00  0.0000000000000D+00
   342  3.4100000000000D+00  0.0000000000000D+00  0.0000000000000D+00
   343  3.4200000000000D+00  0.0000000000000D+00  0.0000000000000D+00
   344  3.4300000000000D+00  0.0000000000000D+00  0.0000000000000D+00
   345  3.4400000000000D+00  0.0000000000000D+00  0.0000000000000D+00
   346  3.4500000000000D+00  0.0000000000000D+00  0.0000000000000D+00
   347  3.4600000000000D+00  0.0000000000000D+00  0.0000000000000D+00
   348  3.4700000000000D+00  0.0000000000000D+00  0.0000000000000D+00
   349  3.4800000000000D+00  0.0000000000000D+00  0.0000000000000D+00
   350  3.4900000000000D+00  0.0000000000000D+00  0.0000000000000D+00
   351  3.5000000000000D+00  0.0000000000000D+00  0.0000000000000D+00
   352  3.5100000000000D+00  0.0000000000000D+00  0.0000000000000D+00
   353  3.5200000000000D+00  0.0000000000000D+00  0.0000000000000D+00
   354  3.5300000000000D+00  0.0000000000000D+00  0.0000000000000D+00
   355  3.5400000000000D+00  0.0000000000000D+00  0.0000000000000D+00
   356  3.5500000000000D+00  0.0000000000000D+00  0.0000000000000D+00
   357  3.5600000000000D+00  0.0000000000000D+00  0.0000000000000D+00
   358  3.5700000000000D+00  0.0000000000000D+00  0.0000000000000D+00
   359  3.5800000000000D+00  0.0000000000000D+00  0.0000000000000D+00
   360  3.5900000000000D+00  0.0000000000000D+00  0.0000000000000D+00
   361  3.6000000000000D+00  0.0000000000000D+00  0.0000000000000D+00
   362  3.6100000000000D+00  0.0000000000000D+00  0.0000000000000D+00
   363  3.6200000000000D+00  0.0000000000000D+00  0.0000000000000D+00
   364  3.6300000000000D+00  0.0000000000000D+00  0.0000000000000D+00
   365  3.6400000000000D+00  0.0000000000000D+00  0.0000000000000D+00
   366  3.6500000000000D+00  0.0000000000000D+00  0.0000000000000D+00
   367  3.6600000000000D+00  0.0000000000000D+00  0.0000000000000D+00
   368  3.6700000000000D+00  0.0000000000000D+00  0.0000000000000D+00
   369  3.6800000000000D+00  0.0000000000000D+00  0.0000000000000D+00
   370  3.6900000000000D+00  0.0000000000000D+00  0.0000000000000D+00
   371  3.7000000000000D+00  0.0000000000000D+00  0.0000000000000D+00
   372  3.7100000000000D+00  0.0000000000000D+00  0.0000000000000D+00
   373  3.7200000000000D+00  0.0000000000000D+00  0.0000000000000D+00
   374  3.7300000000000D+00  0.0000000000000D+00  0.0000000000000D+00
   375  3.7400000000000D+00  0.0000000000000D+00  0.0000000000000D+00
   376  3.7500000000000D+00  0.0000000000000D+00  0.0000000000000D+00
   377  3.7600000000000D+00  0.0000000000000D+00  0.0000000000000D+00
   378  3.7700000000000D+00  0.0000000000000D+00  0.0000000000000D+00
   379  3.7800000000000D+00  0.0000000000000D+00  0.0000000000000D+00
   380  3.7900000000000D+00  0.0000000000000D+00  0.0000000000000D+00
   381  3.8000000000000D+00  0.0000000000000D+00  0.0000000000000D+00
   382  3.8100000000000D+00  0.0000000000000D+00  0.0000000000000D+00
   383  3.8200000000000D+00  0.0000000000000D+00  0.0000000000000D+00
   384  3.8300000000000D+00  0.0000000000000D+00  0.0000000000000D+00
   385  3.8400000000000D+00  0.0000000000000D+00  0.0000000000000D+00
   386  3.8500000000000D+00  0.0000000000000D+00  0.0000000000000D+00
   387  3.8600000000000D+00  0.0000000000000D+00  0.0000000000000D+00
   388  3.8700000000000D+00  0.0000000000000D+00  0.0000000000000D+00
   389  3.8800000000000D+00  0.0000000000000D+00  0.0000000000000D+00
   390  3.8900000000000D+00  0.0000000000000D+00  0.0000000000000D+00
   391  3.9000000000000D+00  0.0000000000000D+00  0.0000000000000D+00
   392  3.9100000000000D+00  0.0000000000000D+00  0.0000000000000D+00
   393  3.9200000000000D+00  0.0000000000000D+00  0.0000000000000D+00
   394  3.9300000000000D+00  0.0000000000000D+00  0.0000000000000D+00
   395  3.9400000000000D+00  0.0000000000000D+00  0.0000000000000D+00
   396  3.9500000000000D+00  0.0000000000000D+00  0.0000000000000D+00
   397  3.9600000000000D+00  0.0000000000000D+00  0.0000000000000D+00
   398  3.9700000000000D+00  0.0000000000000D+00  0.0000000000000D+00
   399  3.9800000000000D+00  0.0000000000000D+00  0.0000000000000D+00
   400  3.9900000000000D+00  0.0000000000000D+00  0.0000000000000D+00
   401  4.0000000000000D+00  0.0000000000000D+00  0.0000000000000D+00
   402  4.0100000000000D+00  0.0000000000000D+00  0.0000000000000D+00
   403  4.0200000000000D+00  0.0000000000000D+00  0.0000000000000D+00
   404  4.0300000000000D+00  0.0000000000000D+00  0.0000000000000D+00
   405  4.0400000000000D+00  0.0000000000000D+00  0.0000000000000D+00
   406  4.0500000000000D+00  0.0000000000000D+00  0.0000000000000D+00
   407  4.0600000000000D+00  0.0000000000000D+00  0.0000000000000D+00
   408  4.0700000000000D+00  0.0000000000000D+00  0.0000000000000D+00
   409  4.0800000000000D+00  0.0000000000000D+00  0.0000000000000D+00
   410  4.0900000000000D+00  0.0000000000000D+00  0.0000000000000D+00
   411  4.1000000000000D+00  0.0000000000000D+00  0.0000000000000D+00
   412  4.1100000000000D+00  0.0000000000000D+00  0.0000000000000D+00
   413  4.1200000000000D+00  0.0000000000000D+00  0.0000000000000D+00
   414  4.1300000000000D+00  0.0000000000000D+00  0.0000000000000D+00
   415  4.1400000000000D+00  0.0000000000000D+00  0.0000000000000D+00
   416  4.1500000000000D+00  0.0000000000000D+00  0.0000000000000D+00
   417  4.1600000000000D+00  0.0000000000000D+00  0.0000000000000D+00
   418  4.1700000000000D+00  0.0000000000000D+00  0.0000000000000D+00
   419  4.1800000000000D+00  0.0000000000000D+00  0.0000000000000D+00
   420  4.1900000000000D+00  0.0000000000000D+00  0.0000000000000D+00
   421  4.2000000000000D+00  0.0000000000000D+00  0.0000000000000D+00
   422  4.2100000000000D+00  0.0000000000000D+00  0.0000000000000D+00