Ca    ONCVPSP-3.3.0  r_core=   1.45885   1.45885   1.85192
     20.0000     10.0000      220408    zatom,zion,pspd
     8       2   2     4   400     0    pspcod,pspxc,lmax,lloc,mmax,r2well
  3.99000000  0.00000000  0.00000000    rchrg fchrg qchrg
     2     2     2     0     0    nproj
     1     1           extension_switch
   0                         1.0040474038518D+01  9.8053078017914D-01
     1  0.0000000000000D+00 -3.2981872788440D-10  1.3586496927509D-09
     2  1.0000000000000D-02  7.1261436494825D-02 -3.9656350582860D-02
     3  2.0000000000000D-02  1.4236336827389D-01 -7.9061761815526D-02
     4  3.0000000000000D-02  2.1314696600523D-01 -1.1796733282101D-01
     5  4.0000000000000D-02  2.8345474483665D-01 -1.5612821465547D-01
     6  5.0000000000000D-02  3.5313122100151D-01 -1.9330557409359D-01
     7  6.0000000000000D-02  4.2202354990181D-01 -2.2926848377713D-01
     8  7.0000000000000D-02  4.8998213988739D-01 -2.6379571580019D-01
     9  8.0000000000000D-02  5.5686123628022D-01 -2.9667741716386D-01
    10  9.0000000000000D-02  6.2251947059556D-01 -3.2771664719410D-01
    11  1.0000000000000D-01  6.8682037038342D-01 -3.5673075895895D-01
    12  1.1000000000000D-01  7.4963282564505D-01 -3.8355260891479D-01
    13  1.2000000000000D-01  8.1083150836506D-01 -4.0803158142666D-01
    14  1.3000000000000D-01  8.7029724232960D-01 -4.3003441740984D-01
    15  1.4000000000000D-01  9.2791732106737D-01 -4.4944583909167D-01
    16  1.5000000000000D-01  9.8358577244203D-01 -4.6616896575574D-01
    17  1.6000000000000D-01  1.0372035691336D+00 -4.8012551826320D-01
    18  1.7000000000000D-01  1.0886787849604D+00 -4.9125581310660D-01
    19  1.8000000000000D-01  1.1379266977027D+00 -4.9951854969804D-01
    20  1.9000000000000D-01  1.1848698397864D+00 -5.0489039748290D-01
    21  2.0000000000000D-01  1.2294379988511D+00 -5.0736539226134D-01
    22  2.1000000000000D-01  1.2715681708678D+00 -5.0695415375155D-01
    23  2.2000000000000D-01  1.3112044690587D+00 -5.0368293890351D-01
    24  2.3000000000000D-01  1.3482979924109D+00 -4.9759254773244D-01
    25  2.4000000000000D-01  1.3828066580551D+00 -4.8873710045465D-01
    26  2.5000000000000D-01  1.4146950021875D+00 -4.7718270644540D-01
    27  2.6000000000000D-01  1.4439339545504D+00 -4.6300604697147D-01
    28  2.7000000000000D-01  1.4705005917401D+00 -4.4629289476018D-01
    29  2.8000000000000D-01  1.4943778747875D+00 -4.2713659423220D-01
    30  2.9000000000000D-01  1.5155543765370D+00 -4.0563652663771D-01
    31  3.0000000000000D-01  1.5340240043535D+00 -3.8189658438390D-01
    32  3.1000000000000D-01  1.5497857235935D+00 -3.5602367852717D-01
    33  3.2000000000000D-01  1.5628432871010D+00 -3.2812630272617D-01
    34  3.3000000000000D-01  1.5732049757293D+00 -2.9831317592144D-01
    35  3.4000000000000D-01  1.5808833545426D+00 -2.6669198463724D-01
    36  3.5000000000000D-01  1.5858950489384D+00 -2.3336824410938D-01
    37  3.6000000000000D-01  1.5882605444385D+00 -1.9844429545204D-01
    38  3.7000000000000D-01  1.5880040133466D+00 -1.6201845381543D-01
    39  3.8000000000000D-01  1.5851531708609D+00 -1.2418431998611D-01
    40  3.9000000000000D-01  1.5797391625818D+00 -8.5030265177693D-02
    41  4.0000000000000D-01  1.5717964846595D+00 -4.4639095891612D-02
    42  4.1000000000000D-01  1.5613629371164D+00 -3.0879027358533D-03
    43  4.2000000000000D-01  1.5484796101460D+00  3.9551905980851D-02
    44  4.3000000000000D-01  1.5331909024593D+00  8.3214388167391D-02
    45  4.4000000000000D-01  1.5155445700214D+00  1.2783867476158D-01
    46  4.5000000000000D-01  1.4955918028183D+00  1.7336840784992D-01
    47  4.6000000000000D-01  1.4733873266149D+00  2.1975102144006D-01
    48  4.7000000000000D-01  1.4489895260356D+00  2.6693687901159D-01
    49  4.8000000000000D-01  1.4224605847145D+00  3.1487828455699D-01
    50  4.9000000000000D-01  1.3938666377458D+00  3.6352838617904D-01
    51  5.0000000000000D-01  1.3632779312154D+00  4.1283999339104D-01
    52  5.1000000000000D-01  1.3307689832287D+00  4.6276433104348D-01
    53  5.2000000000000D-01  1.2964187405662D+00  5.1324975423798D-01
    54  5.3000000000000D-01  1.2603107249124D+00  5.6424044966661D-01
    55  5.4000000000000D-01  1.2225331625085D+00  6.1567514950814D-01
    56  5.5000000000000D-01  1.1831790910918D+00  6.6748588430763D-01
    57  5.6000000000000D-01  1.1423464380930D+00  7.1959680115319D-01
    58  5.7000000000000D-01  1.1001380642783D+00  7.7192307293833D-01
    59  5.8000000000000D-01  1.0566617673370D+00  8.2436992356426D-01
    60  5.9000000000000D-01  1.0120302403292D+00  8.7683179259929D-01
    61  6.0000000000000D-01  9.6636098041655D-01  9.2919166119031D-01
    62  6.1000000000000D-01  9.1977614389637D-01  9.8132055892632D-01
    63  6.2000000000000D-01  8.7240234423427D-01  1.0330772689293D+00
    64  6.3000000000000D-01  8.2437039054725D-01  1.0843082456909D+00
    65  6.4000000000000D-01  7.7581496479781D-01  1.1348477571704D+00
    66  6.5000000000000D-01  7.2687423683089D-01  1.1845182594068D+00
    67  6.6000000000000D-01  6.7768941729272D-01  1.2331310084554D+00
    68  6.7000000000000D-01  6.2840424940444D-01  1.2804869108861D+00
    69  6.8000000000000D-01  5.7916444151763D-01  1.3263776103944D+00
    70  6.9000000000000D-01  5.3011704332984D-01  1.3705868043699D+00
    71  7.0000000000000D-01  4.8140976957987D-01  1.4128917805627D+00
    72  7.1000000000000D-01  4.3319027595211D-01  1.4530651603782D+00
    73  7.2000000000000D-01  3.8560539279777D-01  1.4908768318053D+00
    74  7.3000000000000D-01  3.3880032309615D-01  1.5260960516756D+00
    75  7.4000000000000D-01  2.9291781183219D-01  1.5584936938501D+00
    76  7.5000000000000D-01  2.4809729464029D-01  1.5878446171121D+00
    77  7.6000000000000D-01  2.0447403414502D-01  1.6139301240574D+00
    78  7.7000000000000D-01  1.6217825291273D-01  1.6365404801374D+00
    79  7.8000000000000D-01  1.2133427229900D-01  1.6554774602913D+00
    80  7.9000000000000D-01  8.2059666731075D-02  1.6705568893077D+00
    81  8.0000000000000D-01  4.4464443096202D-02  1.6816111412240D+00
    82  8.1000000000000D-01  8.6502549097150D-03  1.6884915627190D+00
    83  8.2000000000000D-01 -2.5290339189747D-02  1.6910707855886D+00
    84  8.3000000000000D-01 -5.7274563328510D-02  1.6892448940289D+00
    85  8.4000000000000D-01 -8.7230049768072D-02  1.6829354135822D+00
    86  8.5000000000000D-01 -1.1509539337057D-01  1.6720910902182D+00
    87  8.6000000000000D-01 -1.4082062741013D-01  1.6566894301092D+00
    88  8.7000000000000D-01 -1.6436761373349D-01  1.6367379732021D+00
    89  8.8000000000000D-01 -1.8571034113344D-01  1.6122752766408D+00
    90  8.9000000000000D-01 -2.0483512675661D-01  1.5833715874419D+00
    91  9.0000000000000D-01 -2.2174071641012D-01  1.5501291875070D+00
    92  9.1000000000000D-01 -2.3643828074838D-01  1.5126823980347D+00
    93  9.2000000000000D-01 -2.4895130549652D-01  1.4711972346195D+00
    94  9.3000000000000D-01 -2.5931537508605D-01  1.4258707087332D+00
    95  9.4000000000000D-01 -2.6757785032463D-01  1.3769297758175D+00
    96  9.5000000000000D-01 -2.7379744198027D-01  1.3246299348220D+00
    97  9.6000000000000D-01 -2.7804368340975D-01  1.2692534886095D+00
    98  9.7000000000000D-01 -2.8039630660026D-01  1.2111074792305D+00
    99  9.8000000000000D-01 -2.8094452716030D-01  1.1505213163907D+00
   100  9.9000000000000D-01 -2.7978624494856D-01  1.0878441217315D+00
   101  1.0000000000000D+00 -2.7702716808212D-01  1.0234418154781D+00
   102  1.0100000000000D+00 -2.7277986903125D-01  9.5769397564169D-01
   103  1.0200000000000D+00 -2.6716278237999D-01  8.9099050325425D-01
   104  1.0300000000000D+00 -2.6029915458163D-01  8.2372812996961D-01
   105  1.0400000000000D+00 -2.5231595667168D-01  7.5630680679153D-01
   106  1.0500000000000D+00 -2.4334277135976D-01  6.8912601447238D-01
   107  1.0600000000000D+00 -2.3351066630965D-01  6.2258103766261D-01
   108  1.0700000000000D+00 -2.2295106556943D-01  5.5705924554233D-01
   109  1.0800000000000D+00 -2.1179463117031D-01  4.9293642197160D-01
   110  1.0900000000000D+00 -2.0017016674826D-01  4.3057318768123D-01
   111  1.1000000000000D+00 -1.8820355484217D-01  3.7031155635873D-01
   112  1.1100000000000D+00 -1.7601673900336D-01  3.1247166466044D-01
   113  1.1200000000000D+00 -1.6372676131838D-01  2.5734871427219D-01
   114  1.1300000000000D+00 -1.5144486513427D-01  2.0521016120579D-01
   115  1.1400000000000D+00 -1.3927567204013D-01  1.5629318484923D-01
   116  1.1500000000000D+00 -1.2731644107634D-01  1.1080246534024D-01
   117  1.1600000000000D+00 -1.1565641704146D-01  6.8908293795466D-02
   118  1.1700000000000D+00 -1.0437627345124D-01  3.0745035090963D-02
   119  1.1800000000000D+00 -9.3547654787287D-02 -3.5900404819791D-03
   120  1.1900000000000D+00 -8.3232820901921D-02 -3.4037546893410D-02
   121  1.2000000000000D+00 -7.3484395196029D-02 -6.0576388213809D-02
   122  1.2100000000000D+00 -6.4345216725701D-02 -8.3223780850596D-02
   123  1.2200000000000D+00 -5.5848295289168D-02 -1.0203489650278D-01
   124  1.2300000000000D+00 -4.8016866496365D-02 -1.1710213775227D-01
   125  1.2400000000000D+00 -4.0864542620500D-02 -1.2855406267487D-01
   126  1.2500000000000D+00 -3.4395554393691D-02 -1.3655397721625D-01
   127  1.2600000000000D+00 -2.8605076431318D-02 -1.4129822327570D-01
   128  1.2700000000000D+00 -2.3479625999568D-02 -1.4301420432447D-01
   129  1.2800000000000D+00 -1.8997541839098D-02 -1.4195810570036D-01
   130  1.2900000000000D+00 -1.5129482222686D-02 -1.3841259648279D-01
   131  1.3000000000000D+00 -1.1839105109989D-02 -1.3268371072774D-01
   132  1.3100000000000D+00 -9.0833301034410D-03 -1.2509980443366D-01
   133  1.3200000000000D+00 -6.8135897805528D-03 -1.1600571185961D-01
   134  1.3300000000000D+00 -4.9791682247951D-03 -1.0574687721409D-01
   135  1.3400000000000D+00 -3.5258504841323D-03 -9.4676359143945D-02
   136  1.3500000000000D+00 -2.3981245122509D-03 -8.3145189371793D-02
   137  1.3600000000000D+00 -1.5591533580021D-03 -7.1408468087301D-02
   138  1.3700000000000D+00 -9.6997998316803D-04 -5.9725456986469D-02
   139  1.3800000000000D+00 -5.6723414555063D-04 -4.8466712942799D-02
   140  1.3900000000000D+00 -3.0054509036615D-04 -3.7935417069554D-02
   141  1.4000000000000D+00 -1.3648561360981D-04 -2.8349313014018D-02
   142  1.4100000000000D+00 -4.2431630107657D-05 -1.9921522875113D-02
   143  1.4200000000000D+00  8.5339156906029D-06 -1.2830853744971D-02
   144  1.4300000000000D+00  3.5190504003349D-05 -7.1851100884859D-03
   145  1.4400000000000D+00  5.2715467332864D-05 -3.1811423699306D-03
   146  1.4500000000000D+00  7.0839544751502D-05 -9.7253725892847D-04
   147  1.4600000000000D+00  6.6733219705537D-05 -1.2180039335618D-04
   148  1.4700000000000D+00  2.5484436495120D-05  3.4832681384653D-05
   149  1.4800000000000D+00 -5.7871649589919D-06 -1.3988078221425D-05
   150  1.4900000000000D+00 -4.2668016825275D-06 -1.3407953411464D-05
   151  1.5000000000000D+00  1.5792457081125D-06  2.6786353249024D-06
   152  1.5100000000000D+00  5.3030762791498D-07  1.0488725464267D-06
   153  1.5200000000000D+00 -1.9736671105632D-07  4.9141927505679D-07
   154  1.5300000000000D+00 -4.8003636437918D-09  1.1952325745388D-08
   155  1.5400000000000D+00  0.0000000000000D+00  0.0000000000000D+00
   156  1.5500000000000D+00  0.0000000000000D+00  0.0000000000000D+00
   157  1.5600000000000D+00  0.0000000000000D+00  0.0000000000000D+00
   158  1.5700000000000D+00  0.0000000000000D+00  0.0000000000000D+00
   159  1.5800000000000D+00  0.0000000000000D+00  0.0000000000000D+00
   160  1.5900000000000D+00  0.0000000000000D+00  0.0000000000000D+00
   161  1.6000000000000D+00  0.0000000000000D+00  0.0000000000000D+00
   162  1.6100000000000D+00  0.0000000000000D+00  0.0000000000000D+00
   163  1.6200000000000D+00  0.0000000000000D+00  0.0000000000000D+00
   164  1.6300000000000D+00  0.0000000000000D+00  0.0000000000000D+00
   165  1.6400000000000D+00  0.0000000000000D+00  0.0000000000000D+00
   166  1.6500000000000D+00  0.0000000000000D+00  0.0000000000000D+00
   167  1.6600000000000D+00  0.0000000000000D+00  0.0000000000000D+00
   168  1.6700000000000D+00  0.0000000000000D+00  0.0000000000000D+00
   169  1.6800000000000D+00  0.0000000000000D+00  0.0000000000000D+00
   170  1.6900000000000D+00  0.0000000000000D+00  0.0000000000000D+00
   171  1.7000000000000D+00  0.0000000000000D+00  0.0000000000000D+00
   172  1.7100000000000D+00  0.0000000000000D+00  0.0000000000000D+00
   173  1.7200000000000D+00  0.0000000000000D+00  0.0000000000000D+00
   174  1.7300000000000D+00  0.0000000000000D+00  0.0000000000000D+00
   175  1.7400000000000D+00  0.0000000000000D+00  0.0000000000000D+00
   176  1.7500000000000D+00  0.0000000000000D+00  0.0000000000000D+00
   177  1.7600000000000D+00  0.0000000000000D+00  0.0000000000000D+00
   178  1.7700000000000D+00  0.0000000000000D+00  0.0000000000000D+00
   179  1.7800000000000D+00  0.0000000000000D+00  0.0000000000000D+00
   180  1.7900000000000D+00  0.0000000000000D+00  0.0000000000000D+00
   181  1.8000000000000D+00  0.0000000000000D+00  0.0000000000000D+00
   182  1.8100000000000D+00  0.0000000000000D+00  0.0000000000000D+00
   183  1.8200000000000D+00  0.0000000000000D+00  0.0000000000000D+00
   184  1.8300000000000D+00  0.0000000000000D+00  0.0000000000000D+00
   185  1.8400000000000D+00  0.0000000000000D+00  0.0000000000000D+00
   186  1.8500000000000D+00  0.0000000000000D+00  0.0000000000000D+00
   187  1.8600000000000D+00  0.0000000000000D+00  0.0000000000000D+00
   188  1.8700000000000D+00  0.0000000000000D+00  0.0000000000000D+00
   189  1.8800000000000D+00  0.0000000000000D+00  0.0000000000000D+00
   190  1.8900000000000D+00  0.0000000000000D+00  0.0000000000000D+00
   191  1.9000000000000D+00  0.0000000000000D+00  0.0000000000000D+00
   192  1.9100000000000D+00  0.0000000000000D+00  0.0000000000000D+00
   193  1.9200000000000D+00  0.0000000000000D+00  0.0000000000000D+00
   194  1.9300000000000D+00  0.0000000000000D+00  0.0000000000000D+00
   195  1.9400000000000D+00  0.0000000000000D+00  0.0000000000000D+00
   196  1.9500000000000D+00  0.0000000000000D+00  0.0000000000000D+00
   197  1.9600000000000D+00  0.0000000000000D+00  0.0000000000000D+00
   198  1.9700000000000D+00  0.0000000000000D+00  0.0000000000000D+00
   199  1.9800000000000D+00  0.0000000000000D+00  0.0000000000000D+00
   200  1.9900000000000D+00  0.0000000000000D+00  0.0000000000000D+00
   201  2.0000000000000D+00  0.0000000000000D+00  0.0000000000000D+00
   202  2.0100000000000D+00  0.0000000000000D+00  0.0000000000000D+00
   203  2.0200000000000D+00  0.0000000000000D+00  0.0000000000000D+00
   204  2.0300000000000D+00  0.0000000000000D+00  0.0000000000000D+00
   205  2.0400000000000D+00  0.0000000000000D+00  0.0000000000000D+00
   206  2.0500000000000D+00  0.0000000000000D+00  0.0000000000000D+00
   207  2.0600000000000D+00  0.0000000000000D+00  0.0000000000000D+00
   208  2.0700000000000D+00  0.0000000000000D+00  0.0000000000000D+00
   209  2.0800000000000D+00  0.0000000000000D+00  0.0000000000000D+00
   210  2.0900000000000D+00  0.0000000000000D+00  0.0000000000000D+00
   211  2.1000000000000D+00  0.0000000000000D+00  0.0000000000000D+00
   212  2.1100000000000D+00  0.0000000000000D+00  0.0000000000000D+00
   213  2.1200000000000D+00  0.0000000000000D+00  0.0000000000000D+00
   214  2.1300000000000D+00  0.0000000000000D+00  0.0000000000000D+00
   215  2.1400000000000D+00  0.0000000000000D+00  0.0000000000000D+00
   216  2.1500000000000D+00  0.0000000000000D+00  0.0000000000000D+00
   217  2.1600000000000D+00  0.0000000000000D+00  0.0000000000000D+00
   218  2.1700000000000D+00  0.0000000000000D+00  0.0000000000000D+00
   219  2.1800000000000D+00  0.0000000000000D+00  0.0000000000000D+00
   220  2.1900000000000D+00  0.0000000000000D+00  0.0000000000000D+00
   221  2.2000000000000D+00  0.0000000000000D+00  0.0000000000000D+00
   222  2.2100000000000D+00  0.0000000000000D+00  0.0000000000000D+00
   223  2.2200000000000D+00  0.0000000000000D+00  0.0000000000000D+00
   224  2.2300000000000D+00  0.0000000000000D+00  0.0000000000000D+00
   225  2.2400000000000D+00  0.0000000000000D+00  0.0000000000000D+00
   226  2.2500000000000D+00  0.0000000000000D+00  0.0000000000000D+00
   227  2.2600000000000D+00  0.0000000000000D+00  0.0000000000000D+00
   228  2.2700000000000D+00  0.0000000000000D+00  0.0000000000000D+00
   229  2.2800000000000D+00  0.0000000000000D+00  0.0000000000000D+00
   230  2.2900000000000D+00  0.0000000000000D+00  0.0000000000000D+00
   231  2.3000000000000D+00  0.0000000000000D+00  0.0000000000000D+00
   232  2.3100000000000D+00  0.0000000000000D+00  0.0000000000000D+00
   233  2.3200000000000D+00  0.0000000000000D+00  0.0000000000000D+00
   234  2.3300000000000D+00  0.0000000000000D+00  0.0000000000000D+00
   235  2.3400000000000D+00  0.0000000000000D+00  0.0000000000000D+00
   236  2.3500000000000D+00  0.0000000000000D+00  0.0000000000000D+00
   237  2.3600000000000D+00  0.0000000000000D+00  0.0000000000000D+00
   238  2.3700000000000D+00  0.0000000000000D+00  0.0000000000000D+00
   239  2.3800000000000D+00  0.0000000000000D+00  0.0000000000000D+00
   240  2.3900000000000D+00  0.0000000000000D+00  0.0000000000000D+00
   241  2.4000000000000D+00  0.0000000000000D+00  0.0000000000000D+00
   242  2.4100000000000D+00  0.0000000000000D+00  0.0000000000000D+00
   243  2.4200000000000D+00  0.0000000000000D+00  0.0000000000000D+00
   244  2.4300000000000D+00  0.0000000000000D+00  0.0000000000000D+00
   245  2.4400000000000D+00  0.0000000000000D+00  0.0000000000000D+00
   246  2.4500000000000D+00  0.0000000000000D+00  0.0000000000000D+00
   247  2.4600000000000D+00  0.0000000000000D+00  0.0000000000000D+00
   248  2.4700000000000D+00  0.0000000000000D+00  0.0000000000000D+00
   249  2.4800000000000D+00  0.0000000000000D+00  0.0000000000000D+00
   250  2.4900000000000D+00  0.0000000000000D+00  0.0000000000000D+00
   251  2.5000000000000D+00  0.0000000000000D+00  0.0000000000000D+00
   252  2.5100000000000D+00  0.0000000000000D+00  0.0000000000000D+00
   253  2.5200000000000D+00  0.0000000000000D+00  0.0000000000000D+00
   254  2.5300000000000D+00  0.0000000000000D+00  0.0000000000000D+00
   255  2.5400000000000D+00  0.0000000000000D+00  0.0000000000000D+00
   256  2.5500000000000D+00  0.0000000000000D+00  0.0000000000000D+00
   257  2.5600000000000D+00  0.0000000000000D+00  0.0000000000000D+00
   258  2.5700000000000D+00  0.0000000000000D+00  0.0000000000000D+00
   259  2.5800000000000D+00  0.0000000000000D+00  0.0000000000000D+00
   260  2.5900000000000D+00  0.0000000000000D+00  0.0000000000000D+00
   261  2.6000000000000D+00  0.0000000000000D+00  0.0000000000000D+00
   262  2.6100000000000D+00  0.0000000000000D+00  0.0000000000000D+00
   263  2.6200000000000D+00  0.0000000000000D+00  0.0000000000000D+00
   264  2.6300000000000D+00  0.0000000000000D+00  0.0000000000000D+00
   265  2.6400000000000D+00  0.0000000000000D+00  0.0000000000000D+00
   266  2.6500000000000D+00  0.0000000000000D+00  0.0000000000000D+00
   267  2.6600000000000D+00  0.0000000000000D+00  0.0000000000000D+00
   268  2.6700000000000D+00  0.0000000000000D+00  0.0000000000000D+00
   269  2.6800000000000D+00  0.0000000000000D+00  0.0000000000000D+00
   270  2.6900000000000D+00  0.0000000000000D+00  0.0000000000000D+00
   271  2.7000000000000D+00  0.0000000000000D+00  0.0000000000000D+00
   272  2.7100000000000D+00  0.0000000000000D+00  0.0000000000000D+00
   273  2.7200000000000D+00  0.0000000000000D+00  0.0000000000000D+00
   274  2.7300000000000D+00  0.0000000000000D+00  0.0000000000000D+00
   275  2.7400000000000D+00  0.0000000000000D+00  0.0000000000000D+00
   276  2.7500000000000D+00  0.0000000000000D+00  0.0000000000000D+00
   277  2.7600000000000D+00  0.0000000000000D+00  0.0000000000000D+00
   278  2.7700000000000D+00  0.0000000000000D+00  0.0000000000000D+00
   279  2.7800000000000D+00  0.0000000000000D+00  0.0000000000000D+00
   280  2.7900000000000D+00  0.0000000000000D+00  0.0000000000000D+00
   281  2.8000000000000D+00  0.0000000000000D+00  0.0000000000000D+00
   282  2.8100000000000D+00  0.0000000000000D+00  0.0000000000000D+00
   283  2.8200000000000D+00  0.0000000000000D+00  0.0000000000000D+00
   284  2.8300000000000D+00  0.0000000000000D+00  0.0000000000000D+00
   285  2.8400000000000D+00  0.0000000000000D+00  0.0000000000000D+00
   286  2.8500000000000D+00  0.0000000000000D+00  0.0000000000000D+00
   287  2.8600000000000D+00  0.0000000000000D+00  0.0000000000000D+00
   288  2.8700000000000D+00  0.0000000000000D+00  0.0000000000000D+00
   289  2.8800000000000D+00  0.0000000000000D+00  0.0000000000000D+00
   290  2.8900000000000D+00  0.0000000000000D+00  0.0000000000000D+00
   291  2.9000000000000D+00  0.0000000000000D+00  0.0000000000000D+00
   292  2.9100000000000D+00  0.0000000000000D+00  0.0000000000000D+00
   293  2.9200000000000D+00  0.0000000000000D+00  0.0000000000000D+00
   294  2.9300000000000D+00  0.0000000000000D+00  0.0000000000000D+00
   295  2.9400000000000D+00  0.0000000000000D+00  0.0000000000000D+00
   296  2.9500000000000D+00  0.0000000000000D+00  0.0000000000000D+00
   297  2.9600000000000D+00  0.0000000000000D+00  0.0000000000000D+00
   298  2.9700000000000D+00  0.0000000000000D+00  0.0000000000000D+00
   299  2.9800000000000D+00  0.0000000000000D+00  0.0000000000000D+00
   300  2.9900000000000D+00  0.0000000000000D+00  0.0000000000000D+00
   301  3.0000000000000D+00  0.0000000000000D+00  0.0000000000000D+00
   302  3.0100000000000D+00  0.0000000000000D+00  0.0000000000000D+00
   303  3.0200000000000D+00  0.0000000000000D+00  0.0000000000000D+00
   304  3.0300000000000D+00  0.0000000000000D+00  0.0000000000000D+00
   305  3.0400000000000D+00  0.0000000000000D+00  0.0000000000000D+00
   306  3.0500000000000D+00  0.0000000000000D+00  0.0000000000000D+00
   307  3.0600000000000D+00  0.0000000000000D+00  0.0000000000000D+00
   308  3.0700000000000D+00  0.0000000000000D+00  0.0000000000000D+00
   309  3.0800000000000D+00  0.0000000000000D+00  0.0000000000000D+00
   310  3.0900000000000D+00  0.0000000000000D+00  0.0000000000000D+00
   311  3.1000000000000D+00  0.0000000000000D+00  0.0000000000000D+00
   312  3.1100000000000D+00  0.0000000000000D+00  0.0000000000000D+00
   313  3.1200000000000D+00  0.0000000000000D+00  0.0000000000000D+00
   314  3.1300000000000D+00  0.0000000000000D+00  0.0000000000000D+00
   315  3.1400000000000D+00  0.0000000000000D+00  0.0000000000000D+00
   316  3.1500000000000D+00  0.0000000000000D+00  0.0000000000000D+00
   317  3.1600000000000D+00  0.0000000000000D+00  0.0000000000000D+00
   318  3.1700000000000D+00  0.0000000000000D+00  0.0000000000000D+00
   319  3.1800000000000D+00  0.0000000000000D+00  0.0000000000000D+00
   320  3.1900000000000D+00  0.0000000000000D+00  0.0000000000000D+00
   321  3.2000000000000D+00  0.0000000000000D+00  0.0000000000000D+00
   322  3.2100000000000D+00  0.0000000000000D+00  0.0000000000000D+00
   323  3.2200000000000D+00  0.0000000000000D+00  0.0000000000000D+00
   324  3.2300000000000D+00  0.0000000000000D+00  0.0000000000000D+00
   325  3.2400000000000D+00  0.0000000000000D+00  0.0000000000000D+00
   326  3.2500000000000D+00  0.0000000000000D+00  0.0000000000000D+00
   327  3.2600000000000D+00  0.0000000000000D+00  0.0000000000000D+00
   328  3.2700000000000D+00  0.0000000000000D+00  0.0000000000000D+00
   329  3.2800000000000D+00  0.0000000000000D+00  0.0000000000000D+00
   330  3.2900000000000D+00  0.0000000000000D+00  0.0000000000000D+00
   331  3.3000000000000D+00  0.0000000000000D+00  0.0000000000000D+00
   332  3.3100000000000D+00  0.0000000000000D+00  0.0000000000000D+00
   333  3.3200000000000D+00  0.0000000000000D+00  0.0000000000000D+00
   334  3.3300000000000D+00  0.0000000000000D+00  0.0000000000000D+00
   335  3.3400000000000D+00  0.0000000000000D+00  0.0000000000000D+00
   336  3.3500000000000D+00  0.0000000000000D+00  0.0000000000000D+00
   337  3.3600000000000D+00  0.0000000000000D+00  0.0000000000000D+00
   338  3.3700000000000D+00  0.0000000000000D+00  0.0000000000000D+00
   339  3.3800000000000D+00  0.0000000000000D+00  0.0000000000000D+00
   340  3.3900000000000D+00  0.0000000000000D+00  0.0000000000000D+00
   341  3.4000000000000D+00  0.0000000000000D+00  0.0000000000000D+00
   342  3.4100000000000D+00  0.0000000000000D+00  0.0000000000000D+00
   343  3.4200000000000D+00  0.0000000000000D+00  0.0000000000000D+00
   344  3.4300000000000D+00  0.0000000000000D+00  0.0000000000000D+00
   345  3.4400000000000D+00  0.0000000000000D+00  0.0000000000000D+00
   346  3.4500000000000D+00  0.0000000000000D+00  0.0000000000000D+00
   347  3.4600000000000D+00  0.0000000000000D+00  0.0000000000000D+00
   348  3.4700000000000D+00  0.0000000000000D+00  0.0000000000000D+00
   349  3.4800000000000D+00  0.0000000000000D+00  0.0000000000000D+00
   350  3.4900000000000D+00  0.0000000000000D+00  0.0000000000000D+00
   351  3.5000000000000D+00  0.0000000000000D+00  0.0000000000000D+00
   352  3.5100000000000D+00  0.0000000000000D+00  0.0000000000000D+00
   353  3.5200000000000D+00  0.0000000000000D+00  0.0000000000000D+00
   354  3.5300000000000D+00  0.0000000000000D+00  0.0000000000000D+00
   355  3.5400000000000D+00  0.0000000000000D+00  0.0000000000000D+00
   356  3.5500000000000D+00  0.0000000000000D+00  0.0000000000000D+00
   357  3.5600000000000D+00  0.0000000000000D+00  0.0000000000000D+00
   358  3.5700000000000D+00  0.0000000000000D+00  0.0000000000000D+00
   359  3.5800000000000D+00  0.0000000000000D+00  0.0000000000000D+00
   360  3.5900000000000D+00  0.0000000000000D+00  0.0000000000000D+00
   361  3.6000000000000D+00  0.0000000000000D+00  0.0000000000000D+00
   362  3.6100000000000D+00  0.0000000000000D+00  0.0000000000000D+00
   363  3.6200000000000D+00  0.0000000000000D+00  0.0000000000000D+00
   364  3.6300000000000D+00  0.0000000000000D+00  0.0000000000000D+00
   365  3.6400000000000D+00  0.0000000000000D+00  0.0000000000000D+00
   366  3.6500000000000D+00  0.0000000000000D+00  0.0000000000000D+00
   367  3.6600000000000D+00  0.0000000000000D+00  0.0000000000000D+00
   368  3.6700000000000D+00  0.0000000000000D+00  0.0000000000000D+00
   369  3.6800000000000D+00  0.0000000000000D+00  0.0000000000000D+00
   370  3.6900000000000D+00  0.0000000000000D+00  0.0000000000000D+00
   371  3.7000000000000D+00  0.0000000000000D+00  0.0000000000000D+00
   372  3.7100000000000D+00  0.0000000000000D+00  0.0000000000000D+00
   373  3.7200000000000D+00  0.0000000000000D+00  0.0000000000000D+00
   374  3.7300000000000D+00  0.0000000000000D+00  0.0000000000000D+00
   375  3.7400000000000D+00  0.0000000000000D+00  0.0000000000000D+00
   376  3.7500000000000D+00  0.0000000000000D+00  0.0000000000000D+00
   377  3.7600000000000D+00  0.0000000000000D+00  0.0000000000000D+00
   378  3.7700000000000D+00  0.0000000000000D+00  0.0000000000000D+00
   379  3.7800000000000D+00  0.0000000000000D+00  0.0000000000000D+00
   380  3.7900000000000D+00  0.0000000000000D+00  0.0000000000000D+00
   381  3.8000000000000D+00  0.0000000000000D+00  0.0000000000000D+00
   382  3.8100000000000D+00  0.0000000000000D+00  0.0000000000000D+00
   383  3.8200000000000D+00  0.0000000000000D+00  0.0000000000000D+00
   384  3.8300000000000D+00  0.0000000000000D+00  0.0000000000000D+00
   385  3.8400000000000D+00  0.0000000000000D+00  0.0000000000000D+00
   386  3.8500000000000D+00  0.0000000000000D+00  0.0000000000000D+00
   387  3.8600000000000D+00  0.0000000000000D+00  0.0000000000000D+00
   388  3.8700000000000D+00  0.0000000000000D+00  0.0000000000000D+00
   389  3.8800000000000D+00  0.0000000000000D+00  0.0000000000000D+00
   390  3.8900000000000D+00  0.0000000000000D+00  0.0000000000000D+00
   391  3.9000000000000D+00  0.0000000000000D+00  0.0000000000000D+00
   392  3.9100000000000D+00  0.0000000000000D+00  0.0000000000000D+00
   393  3.9200000000000D+00  0.0000000000000D+00  0.0000000000000D+00
   394  3.9300000000000D+00  0.0000000000000D+00  0.0000000000000D+00
   395  3.9400000000000D+00  0.0000000000000D+00  0.0000000000000D+00
   396  3.9500000000000D+00  0.0000000000000D+00  0.0000000000000D+00
   397  3.9600000000000D+00  0.0000000000000D+00  0.0000000000000D+00
   398  3.9700000000000D+00  0.0000000000000D+00  0.0000000000000D+00
   399  3.9800000000000D+00  0.0000000000000D+00  0.0000000000000D+00
   400  3.9900000000000D+00  0.0000000000000D+00  0.0000000000000D+00
   1                         2.9622541170423D+00  4.5045744697276D-01
     1  0.0000000000000D+00  3.0348683149883D-09 -7.6651676395034D-09
     2  1.0000000000000D-02  2.0115731086876D-03 -1.3112957771235D-03
     3  2.0000000000000D-02  8.0338479441766D-03 -5.2269078775907D-03
     4  3.0000000000000D-02  1.8029613003142D-02 -1.1692278888428D-02
     5  4.0000000000000D-02  3.1937253935748D-02 -2.0617369636654D-02
     6  5.0000000000000D-02  4.9671354721203D-02 -3.1877978576375D-02
     7  6.0000000000000D-02  7.1123527298738D-02 -4.5317558426401D-02
     8  7.0000000000000D-02  9.6163457874293D-02 -6.0749500174657D-02
     9  8.0000000000000D-02  1.2464015508834D-01 -7.7959846900543D-02
    10  9.0000000000000D-02  1.5638338243678D-01 -9.6710392838575D-02
    11  1.0000000000000D-01  1.9120525482892D-01 -1.1674211683170D-01
    12  1.1000000000000D-01  2.2890197698548D-01 -1.3777889391025D-01
    13  1.2000000000000D-01  2.6925569956001D-01 -1.5953142427302D-01
    14  1.3000000000000D-01  3.1203646743828D-01 -1.8170131551650D-01
    15  1.4000000000000D-01  3.5700423365488D-01 -2.0398525161772D-01
    16  1.5000000000000D-01  4.0391091177978D-01 -2.2607918096300D-01
    17  1.6000000000000D-01  4.5250243947899D-01 -2.4768245565361D-01
    18  1.7000000000000D-01  5.0252082624380D-01 -2.6850185541011D-01
    19  1.8000000000000D-01  5.5370615900605D-01 -2.8825543162353D-01
    20  1.9000000000000D-01  6.0579854049994D-01 -3.0667611042661D-01
    21  2.0000000000000D-01  6.5853993677283D-01 -3.2351499802657D-01