Cr    ONCVPSP-3.3.0  r_core=   1.30591   1.30591   1.71817
     24.0000     14.0000      220408    zatom,zion,pspd
     8       2   2     4   600     0    pspcod,pspxc,lmax,lloc,mmax,r2well
  5.99000000  0.00000000  0.00000000    rchrg fchrg qchrg
     2     2     2     0     0    nproj
     1     1           extension_switch
   0                         6.4060988905919D+00 -1.1077616875928D+00
     1  0.0000000000000D+00  1.3101441043162D-09  1.4882248655645D-08
     2  1.0000000000000D-02  7.5542194613967D-02 -9.3607927114916D-02
     3  2.0000000000000D-02  1.5095263962743D-01 -1.8628935046001D-01
     4  3.0000000000000D-02  2.2609910981793D-01 -2.7713061458002D-01
     5  4.0000000000000D-02  3.0084844607657D-01 -3.6524354271222D-01
     6  5.0000000000000D-02  3.7506613151545D-01 -4.4977763518291D-01
     7  6.0000000000000D-02  4.4861591828227D-01 -5.2993162949215D-01
     8  7.0000000000000D-02  5.2135952041332D-01 -6.0496422715600D-01
     9  8.0000000000000D-02  5.9315638674584D-01 -6.7420380725805D-01
    10  9.0000000000000D-02  6.6386356631818D-01 -7.3705696476179D-01
    11  1.0000000000000D-01  7.3333567683957D-01 -7.9301573263046D-01
    12  1.1000000000000D-01  8.0142498474404D-01 -8.4166337031726D-01
    13  1.2000000000000D-01  8.6798160309362D-01 -8.8267862680618D-01
    14  1.3000000000000D-01  9.3285381120366D-01 -9.1583841364519D-01
    15  1.4000000000000D-01  9.9588849737265D-01 -9.4101885183204D-01
    16  1.5000000000000D-01  1.0569317235557D+00 -9.5819468547838D-01
    17  1.6000000000000D-01  1.1158294082710D+00 -9.6743708437071D-01
    18  1.7000000000000D-01  1.1724281215177D+00 -9.6890988634097D-01
    19  1.8000000000000D-01  1.2265759830641D+00 -9.6286435823822D-01
    20  1.9000000000000D-01  1.2781236531699D+00 -9.4963258075022D-01
    21  2.0000000000000D-01  1.3269254026937D+00 -9.2961958688447D-01
    22  2.1000000000000D-01  1.3728402476322D+00 -9.0329440613149D-01
    23  2.2000000000000D-01  1.4157331314895D+00 -8.7118018579645D-01
    24  2.3000000000000D-01  1.4554761375045D+00 -8.3384357733947D-01
    25  2.4000000000000D-01  1.4919497117074D+00 -7.9188358850701D-01
    26  2.5000000000000D-01  1.5250438770508D+00 -7.4592011132391D-01
    27  2.6000000000000D-01  1.5546594184802D+00 -6.9658234146907D-01
    28  2.7000000000000D-01  1.5807090187917D+00 -6.4449730606845D-01
    29  2.8000000000000D-01  1.6031183254611D+00 -5.9027871446503D-01
    30  2.9000000000000D-01  1.6218269293288D+00 -5.3451634010061D-01
    31  3.0000000000000D-01  1.6367892370751D+00 -4.7776613137030D-01
    32  3.1000000000000D-01  1.6479752207979D+00 -4.2054123535981D-01
    33  3.2000000000000D-01  1.6553710297015D+00 -3.6330410098845D-01
    34  3.3000000000000D-01  1.6589794508825D+00 -3.0645980755898D-01
    35  3.4000000000000D-01  1.6588202084308D+00 -2.5035074142178D-01
    36  3.5000000000000D-01  1.6549300925072D+00 -1.9525271780473D-01
    37  3.6000000000000D-01  1.6473629126845D+00 -1.4137261730279D-01
    38  3.7000000000000D-01  1.6361892725823D+00 -8.8847577556684D-02
    39  3.8000000000000D-01  1.6214961656636D+00 -3.7745750797917D-02
    40  3.9000000000000D-01  1.6033863949214D+00  1.1931392252115D-02
    41  4.0000000000000D-01  1.5819778220359D+00  6.0245261625439D-02
    42  4.1000000000000D-01  1.5574024543595D+00  1.0731492920800D-01
    43  4.2000000000000D-01  1.5298053807562D+00  1.5331059832796D-01
    44  4.3000000000000D-01  1.4993435698196D+00  1.9844589454910D-01
    45  4.4000000000000D-01  1.4661845462881D+00  2.4296913415714D-01
    46  4.5000000000000D-01  1.4305049635156D+00  2.8715374781749D-01
    47  4.6000000000000D-01  1.3924890916122D+00  3.3128805469503D-01
    48  4.7000000000000D-01  1.3523272422981D+00  3.7566459659995D-01
    49  4.8000000000000D-01  1.3102141526014D+00  4.2056925216949D-01
    50  4.9000000000000D-01  1.2663473502430D+00  4.6627035748710D-01
    51  5.0000000000000D-01  1.2209255238802D+00  5.1300806172473D-01
    52  5.1000000000000D-01  1.1741469213194D+00  5.6098414429296D-01
    53  5.2000000000000D-01  1.1262077983462D+00  6.1035251359709D-01
    54  5.3000000000000D-01  1.0773009399756D+00  6.6121059689294D-01
    55  5.4000000000000D-01  1.0276142746971D+00  7.1359181608436D-01
    56  5.5000000000000D-01  9.7732960070987D-01  7.6745932582554D-01
    57  5.6000000000000D-01  9.2662144122309D-01  8.2270116824858D-01
    58  5.7000000000000D-01  8.7565604368564D-01  8.7912697352549D-01
    59  5.8000000000000D-01  8.2459053532281D-01  9.3646630746965D-01
    60  5.9000000000000D-01  7.7357224466681D-01  9.9436873735678D-01
    61  6.0000000000000D-01  7.2273819587825D-01  1.0524056551081D+00
    62  6.1000000000000D-01  6.7221477967077D-01  1.1100738641182D+00
    63  6.2000000000000D-01  6.2211760156206D-01  1.1668009022439D+00
    64  6.3000000000000D-01  5.7255150509280D-01  1.2219520400298D+00
    65  6.4000000000000D-01  5.2361076459623D-01  1.2748388603113D+00
    66  6.5000000000000D-01  4.7537943912976D-01  1.3247292936445D+00
    67  6.6000000000000D-01  4.2793187636931D-01  1.3708589543433D+00
    68  6.7000000000000D-01  3.8133335263237D-01  1.4124435944644D+00
    69  6.8000000000000D-01  3.3564083281525D-01  1.4486924687053D+00
    70  6.9000000000000D-01  2.9090383193552D-01  1.4788223822265D+00
    71  7.0000000000000D-01  2.4716535820342D-01  1.5020721763128D+00
    72  7.1000000000000D-01  2.0446291613182D-01  1.5177173938490D+00
    73  7.2000000000000D-01  1.6282954717888D-01  1.5250848582453D+00
    74  7.3000000000000D-01  1.2229488480335D-01  1.5235668957663D+00
    75  7.4000000000000D-01  8.2886200622735D-02  1.5126349323847D+00
    76  7.5000000000000D-01  4.4629418601869D-02  1.4918522023289D+00
    77  7.6000000000000D-01  7.5500748665324D-03  1.4608853164160D+00
    78  7.7000000000000D-01 -2.8325798181681D-02  1.4195144538447D+00
    79  7.8000000000000D-01 -6.2970883288819D-02  1.3676419612226D+00
    80  7.9000000000000D-01 -9.6355903289338D-02  1.3052991668764D+00
    81  8.0000000000000D-01 -1.2844907533676D-01  1.2326512465817D+00
    82  8.1000000000000D-01 -1.5921570768205D-01  1.1500000082822D+00
    83  8.2000000000000D-01 -1.8861794947813D-01  1.0577844976463D+00
    84  8.3000000000000D-01 -2.1661470109262D-01  9.5657936284002D-01
    85  8.4000000000000D-01 -2.4316168925119D-01  8.4709095507860D-01
    86  8.5000000000000D-01 -2.6821170806728D-01  7.3015118066484D-01
    87  8.6000000000000D-01 -2.9171502369832D-01  6.0670915968039D-01
    88  8.7000000000000D-01 -3.1361993705894D-01  4.7782078560490D-01
    89  8.8000000000000D-01 -3.3387349579575D-01  3.4463631802228D-01
    90  8.9000000000000D-01 -3.5242234361711D-01  2.0838617685416D-01
    91  9.0000000000000D-01 -3.6921369216005D-01  7.0365140275082D-02
    92  9.1000000000000D-01 -3.8419639790321D-01 -6.8084820825119D-02
    93  9.2000000000000D-01 -3.9732212425572D-01 -2.0559281190686D-01
    94  9.3000000000000D-01 -4.0854656691306D-01 -3.4077810454604D-01
    95  9.4000000000000D-01 -4.1783071891130D-01 -4.7226974577457D-01
    96  9.5000000000000D-01 -4.2514215056561D-01 -5.9872637255861D-01
    97  9.6000000000000D-01 -4.3045627867316D-01 -7.1885590893449D-01
    98  9.7000000000000D-01 -4.3375759901378D-01 -8.3143482075309D-01
    99  9.8000000000000D-01 -4.3504085630244D-01 -9.3532660594986D-01
   100  9.9000000000000D-01 -4.3431212635657D-01 -1.0294992070248D+00
   101  1.0000000000000D+00 -4.3158978629266D-01 -1.1130410463507D+00
   102  1.0100000000000D+00 -4.2690535006273D-01 -1.1851754041132D+00
   103  1.0200000000000D+00 -4.2030414863280D-01 -1.2452728836903D+00
   104  1.0300000000000D+00 -4.1184583641115D-01 -1.2928617378745D+00
   105  1.0400000000000D+00 -4.0160470824402D-01 -1.3276358626792D+00
   106  1.0500000000000D+00 -3.8966981437812D-01 -1.3494603031169D+00
   107  1.0600000000000D+00 -3.7614486399985D-01 -1.3583741543644D+00
   108  1.0700000000000D+00 -3.6114791143476D-01 -1.3545907838101D+00
   109  1.0800000000000D+00 -3.4481082291912D-01 -1.3384953456697D+00
   110  1.0900000000000D+00 -3.2727852539681D-01 -1.3106396024667D+00
   111  1.1000000000000D+00 -3.0870804281083D-01 -1.2717341158964D+00
   112  1.1100000000000D+00 -2.8926732868383D-01 -1.2226379094309D+00
   113  1.1200000000000D+00 -2.6913390777917D-01 -1.1643457528438D+00
   114  1.1300000000000D+00 -2.4849334296005D-01 -1.0979732585353D+00
   115  1.1400000000000D+00 -2.2753754661570D-01 -1.0247400183075D+00
   116  1.1500000000000D+00 -2.0646295872807D-01 -9.4595104146280D-01
   117  1.1600000000000D+00 -1.8546861644838D-01 -8.6297678836503D-01
   118  1.1700000000000D+00 -1.6475414231808D-01 -7.7723212051406D-01
   119  1.1800000000000D+00 -1.4451767983621D-01 -6.9015450680302D-01
   120  1.1900000000000D+00 -1.2495380626249D-01 -6.0318183971633D-01
   121  1.2000000000000D+00 -1.0625145378228D-01 -5.1773022989437D-01
   122  1.2100000000000D+00 -8.8591870063463D-02 -4.3517214634158D-01
   123  1.2200000000000D+00 -7.2146648932172D-02 -3.5681526597388D-01
   124  1.2300000000000D+00 -5.7075861813098D-02 -2.8388239523303D-01
   125  1.2400000000000D+00 -4.3526318661196D-02 -2.1749280378316D-01
   126  1.2500000000000D+00 -3.1629984971219D-02 -1.5864528500493D-01
   127  1.2600000000000D+00 -2.1502581329943D-02 -1.0820325654969D-01
   128  1.2700000000000D+00 -1.3247378184788D-02 -6.6907807874843D-02
   129  1.2800000000000D+00 -6.9032690775347D-03 -3.5101986550633D-02
   130  1.2900000000000D+00 -2.6199276757815D-03 -1.3645662394269D-02
   131  1.3000000000000D+00 -4.8966143388498D-04 -3.0464231480742D-03
   132  1.3100000000000D+00  1.0850204477046D-04  1.1677861466200D-04
   133  1.3200000000000D+00  2.5859624204284D-05  8.1569082351064D-05
   134  1.3300000000000D+00 -3.6895967248325D-05 -1.2829811346615D-04
   135  1.3400000000000D+00  3.7072791474160D-06  1.1053287967024D-05
   136  1.3500000000000D+00  4.1122528110677D-06  1.2929048189258D-05
   137  1.3600000000000D+00  1.8295994650738D-08  1.6201714989913D-06
   138  1.3700000000000D+00  0.0000000000000D+00  0.0000000000000D+00
   139  1.3800000000000D+00  0.0000000000000D+00  0.0000000000000D+00
   140  1.3900000000000D+00  0.0000000000000D+00  0.0000000000000D+00
   141  1.4000000000000D+00  0.0000000000000D+00  0.0000000000000D+00
   142  1.4100000000000D+00  0.0000000000000D+00  0.0000000000000D+00
   143  1.4200000000000D+00  0.0000000000000D+00  0.0000000000000D+00
   144  1.4300000000000D+00  0.0000000000000D+00  0.0000000000000D+00
   145  1.4400000000000D+00  0.0000000000000D+00  0.0000000000000D+00
   146  1.4500000000000D+00  0.0000000000000D+00  0.0000000000000D+00
   147  1.4600000000000D+00  0.0000000000000D+00  0.0000000000000D+00
   148  1.4700000000000D+00  0.0000000000000D+00  0.0000000000000D+00
   149  1.4800000000000D+00  0.0000000000000D+00  0.0000000000000D+00
   150  1.4900000000000D+00  0.0000000000000D+00  0.0000000000000D+00
   151  1.5000000000000D+00  0.0000000000000D+00  0.0000000000000D+00
   152  1.5100000000000D+00  0.0000000000000D+00  0.0000000000000D+00
   153  1.5200000000000D+00  0.0000000000000D+00  0.0000000000000D+00
   154  1.5300000000000D+00  0.0000000000000D+00  0.0000000000000D+00
   155  1.5400000000000D+00  0.0000000000000D+00  0.0000000000000D+00
   156  1.5500000000000D+00  0.0000000000000D+00  0.0000000000000D+00
   157  1.5600000000000D+00  0.0000000000000D+00  0.0000000000000D+00
   158  1.5700000000000D+00  0.0000000000000D+00  0.0000000000000D+00
   159  1.5800000000000D+00  0.0000000000000D+00  0.0000000000000D+00
   160  1.5900000000000D+00  0.0000000000000D+00  0.0000000000000D+00
   161  1.6000000000000D+00  0.0000000000000D+00  0.0000000000000D+00
   162  1.6100000000000D+00  0.0000000000000D+00  0.0000000000000D+00
   163  1.6200000000000D+00  0.0000000000000D+00  0.0000000000000D+00
   164  1.6300000000000D+00  0.0000000000000D+00  0.0000000000000D+00
   165  1.6400000000000D+00  0.0000000000000D+00  0.0000000000000D+00
   166  1.6500000000000D+00  0.0000000000000D+00  0.0000000000000D+00
   167  1.6600000000000D+00  0.0000000000000D+00  0.0000000000000D+00
   168  1.6700000000000D+00  0.0000000000000D+00  0.0000000000000D+00
   169  1.6800000000000D+00  0.0000000000000D+00  0.0000000000000D+00
   170  1.6900000000000D+00  0.0000000000000D+00  0.0000000000000D+00
   171  1.7000000000000D+00  0.0000000000000D+00  0.0000000000000D+00
   172  1.7100000000000D+00  0.0000000000000D+00  0.0000000000000D+00
   173  1.7200000000000D+00  0.0000000000000D+00  0.0000000000000D+00
   174  1.7300000000000D+00  0.0000000000000D+00  0.0000000000000D+00
   175  1.7400000000000D+00  0.0000000000000D+00  0.0000000000000D+00
   176  1.7500000000000D+00  0.0000000000000D+00  0.0000000000000D+00
   177  1.7600000000000D+00  0.0000000000000D+00  0.0000000000000D+00
   178  1.7700000000000D+00  0.0000000000000D+00  0.0000000000000D+00
   179  1.7800000000000D+00  0.0000000000000D+00  0.0000000000000D+00
   180  1.7900000000000D+00  0.0000000000000D+00  0.0000000000000D+00
   181  1.8000000000000D+00  0.0000000000000D+00  0.0000000000000D+00
   182  1.8100000000000D+00  0.0000000000000D+00  0.0000000000000D+00
   183  1.8200000000000D+00  0.0000000000000D+00  0.0000000000000D+00
   184  1.8300000000000D+00  0.0000000000000D+00  0.0000000000000D+00
   185  1.8400000000000D+00  0.0000000000000D+00  0.0000000000000D+00
   186  1.8500000000000D+00  0.0000000000000D+00  0.0000000000000D+00
   187  1.8600000000000D+00  0.0000000000000D+00  0.0000000000000D+00
   188  1.8700000000000D+00  0.0000000000000D+00  0.0000000000000D+00
   189  1.8800000000000D+00  0.0000000000000D+00  0.0000000000000D+00
   190  1.8900000000000D+00  0.0000000000000D+00  0.0000000000000D+00
   191  1.9000000000000D+00  0.0000000000000D+00  0.0000000000000D+00
   192  1.9100000000000D+00  0.0000000000000D+00  0.0000000000000D+00
   193  1.9200000000000D+00  0.0000000000000D+00  0.0000000000000D+00
   194  1.9300000000000D+00  0.0000000000000D+00  0.0000000000000D+00
   195  1.9400000000000D+00  0.0000000000000D+00  0.0000000000000D+00
   196  1.9500000000000D+00  0.0000000000000D+00  0.0000000000000D+00
   197  1.9600000000000D+00  0.0000000000000D+00  0.0000000000000D+00
   198  1.9700000000000D+00  0.0000000000000D+00  0.0000000000000D+00
   199  1.9800000000000D+00  0.0000000000000D+00  0.0000000000000D+00
   200  1.9900000000000D+00  0.0000000000000D+00  0.0000000000000D+00
   201  2.0000000000000D+00  0.0000000000000D+00  0.0000000000000D+00
   202  2.0100000000000D+00  0.0000000000000D+00  0.0000000000000D+00
   203  2.0200000000000D+00  0.0000000000000D+00  0.0000000000000D+00
   204  2.0300000000000D+00  0.0000000000000D+00  0.0000000000000D+00
   205  2.0400000000000D+00  0.0000000000000D+00  0.0000000000000D+00
   206  2.0500000000000D+00  0.0000000000000D+00  0.0000000000000D+00
   207  2.0600000000000D+00  0.0000000000000D+00  0.0000000000000D+00
   208  2.0700000000000D+00  0.0000000000000D+00  0.0000000000000D+00
   209  2.0800000000000D+00  0.0000000000000D+00  0.0000000000000D+00
   210  2.0900000000000D+00  0.0000000000000D+00  0.0000000000000D+00
   211  2.1000000000000D+00  0.0000000000000D+00  0.0000000000000D+00
   212  2.1100000000000D+00  0.0000000000000D+00  0.0000000000000D+00
   213  2.1200000000000D+00  0.0000000000000D+00  0.0000000000000D+00
   214  2.1300000000000D+00  0.0000000000000D+00  0.0000000000000D+00
   215  2.1400000000000D+00  0.0000000000000D+00  0.0000000000000D+00
   216  2.1500000000000D+00  0.0000000000000D+00  0.0000000000000D+00
   217  2.1600000000000D+00  0.0000000000000D+00  0.0000000000000D+00
   218  2.1700000000000D+00  0.0000000000000D+00  0.0000000000000D+00
   219  2.1800000000000D+00  0.0000000000000D+00  0.0000000000000D+00
   220  2.1900000000000D+00  0.0000000000000D+00  0.0000000000000D+00
   221  2.2000000000000D+00  0.0000000000000D+00  0.0000000000000D+00
   222  2.2100000000000D+00  0.0000000000000D+00  0.0000000000000D+00
   223  2.2200000000000D+00  0.0000000000000D+00  0.0000000000000D+00
   224  2.2300000000000D+00  0.0000000000000D+00  0.0000000000000D+00
   225  2.2400000000000D+00  0.0000000000000D+00  0.0000000000000D+00
   226  2.2500000000000D+00  0.0000000000000D+00  0.0000000000000D+00
   227  2.2600000000000D+00  0.0000000000000D+00  0.0000000000000D+00
   228  2.2700000000000D+00  0.0000000000000D+00  0.0000000000000D+00
   229  2.2800000000000D+00  0.0000000000000D+00  0.0000000000000D+00
   230  2.2900000000000D+00  0.0000000000000D+00  0.0000000000000D+00
   231  2.3000000000000D+00  0.0000000000000D+00  0.0000000000000D+00
   232  2.3100000000000D+00  0.0000000000000D+00  0.0000000000000D+00
   233  2.3200000000000D+00  0.0000000000000D+00  0.0000000000000D+00
   234  2.3300000000000D+00  0.0000000000000D+00  0.0000000000000D+00
   235  2.3400000000000D+00  0.0000000000000D+00  0.0000000000000D+00
   236  2.3500000000000D+00  0.0000000000000D+00  0.0000000000000D+00
   237  2.3600000000000D+00  0.0000000000000D+00  0.0000000000000D+00
   238  2.3700000000000D+00  0.0000000000000D+00  0.0000000000000D+00
   239  2.3800000000000D+00  0.0000000000000D+00  0.0000000000000D+00
   240  2.3900000000000D+00  0.0000000000000D+00  0.0000000000000D+00
   241  2.4000000000000D+00  0.0000000000000D+00  0.0000000000000D+00
   242  2.4100000000000D+00  0.0000000000000D+00  0.0000000000000D+00
   243  2.4200000000000D+00  0.0000000000000D+00  0.0000000000000D+00
   244  2.4300000000000D+00  0.0000000000000D+00  0.0000000000000D+00
   245  2.4400000000000D+00  0.0000000000000D+00  0.0000000000000D+00
   246  2.4500000000000D+00  0.0000000000000D+00  0.0000000000000D+00
   247  2.4600000000000D+00  0.0000000000000D+00  0.0000000000000D+00
   248  2.4700000000000D+00  0.0000000000000D+00  0.0000000000000D+00
   249  2.4800000000000D+00  0.0000000000000D+00  0.0000000000000D+00
   250  2.4900000000000D+00  0.0000000000000D+00  0.0000000000000D+00
   251  2.5000000000000D+00  0.0000000000000D+00  0.0000000000000D+00
   252  2.5100000000000D+00  0.0000000000000D+00  0.0000000000000D+00
   253  2.5200000000000D+00  0.0000000000000D+00  0.0000000000000D+00
   254  2.5300000000000D+00  0.0000000000000D+00  0.0000000000000D+00
   255  2.5400000000000D+00  0.0000000000000D+00  0.0000000000000D+00
   256  2.5500000000000D+00  0.0000000000000D+00  0.0000000000000D+00
   257  2.5600000000000D+00  0.0000000000000D+00  0.0000000000000D+00
   258  2.5700000000000D+00  0.0000000000000D+00  0.0000000000000D+00
   259  2.5800000000000D+00  0.0000000000000D+00  0.0000000000000D+00
   260  2.5900000000000D+00  0.0000000000000D+00  0.0000000000000D+00
   261  2.6000000000000D+00  0.0000000000000D+00  0.0000000000000D+00
   262  2.6100000000000D+00  0.0000000000000D+00  0.0000000000000D+00
   263  2.6200000000000D+00  0.0000000000000D+00  0.0000000000000D+00
   264  2.6300000000000D+00  0.0000000000000D+00  0.0000000000000D+00
   265  2.6400000000000D+00  0.0000000000000D+00  0.0000000000000D+00
   266  2.6500000000000D+00  0.0000000000000D+00  0.0000000000000D+00
   267  2.6600000000000D+00  0.0000000000000D+00  0.0000000000000D+00
   268  2.6700000000000D+00  0.0000000000000D+00  0.0000000000000D+00
   269  2.6800000000000D+00  0.0000000000000D+00  0.0000000000000D+00
   270  2.6900000000000D+00  0.0000000000000D+00  0.0000000000000D+00
   271  2.7000000000000D+00  0.0000000000000D+00  0.0000000000000D+00
   272  2.7100000000000D+00  0.0000000000000D+00  0.0000000000000D+00
   273  2.7200000000000D+00  0.0000000000000D+00  0.0000000000000D+00
   274  2.7300000000000D+00  0.0000000000000D+00  0.0000000000000D+00
   275  2.7400000000000D+00  0.0000000000000D+00  0.0000000000000D+00
   276  2.7500000000000D+00  0.0000000000000D+00  0.0000000000000D+00
   277  2.7600000000000D+00  0.0000000000000D+00  0.0000000000000D+00
   278  2.7700000000000D+00  0.0000000000000D+00  0.0000000000000D+00
   279  2.7800000000000D+00  0.0000000000000D+00  0.0000000000000D+00
   280  2.7900000000000D+00  0.0000000000000D+00  0.0000000000000D+00
   281  2.8000000000000D+00  0.0000000000000D+00  0.0000000000000D+00
   282  2.8100000000000D+00  0.0000000000000D+00  0.0000000000000D+00
   283  2.8200000000000D+00  0.0000000000000D+00  0.0000000000000D+00
   284  2.8300000000000D+00  0.0000000000000D+00  0.0000000000000D+00
   285  2.8400000000000D+00  0.0000000000000D+00  0.0000000000000D+00
   286  2.8500000000000D+00  0.0000000000000D+00  0.0000000000000D+00
   287  2.8600000000000D+00  0.0000000000000D+00  0.0000000000000D+00
   288  2.8700000000000D+00  0.0000000000000D+00  0.0000000000000D+00
   289  2.8800000000000D+00  0.0000000000000D+00  0.0000000000000D+00
   290  2.8900000000000D+00  0.0000000000000D+00  0.0000000000000D+00
   291  2.9000000000000D+00  0.0000000000000D+00  0.0000000000000D+00
   292  2.9100000000000D+00  0.0000000000000D+00  0.0000000000000D+00
   293  2.9200000000000D+00  0.0000000000000D+00  0.0000000000000D+00
   294  2.9300000000000D+00  0.0000000000000D+00  0.0000000000000D+00
   295  2.9400000000000D+00  0.0000000000000D+00  0.0000000000000D+00
   296  2.9500000000000D+00  0.0000000000000D+00  0.0000000000000D+00
   297  2.9600000000000D+00  0.0000000000000D+00  0.0000000000000D+00
   298  2.9700000000000D+00  0.0000000000000D+00  0.0000000000000D+00
   299  2.9800000000000D+00  0.0000000000000D+00  0.0000000000000D+00
   300  2.9900000000000D+00  0.0000000000000D+00  0.0000000000000D+00
   301  3.0000000000000D+00  0.0000000000000D+00  0.0000000000000D+00
   302  3.0100000000000D+00  0.0000000000000D+00  0.0000000000000D+00
   303  3.0200000000000D+00  0.0000000000000D+00  0.0000000000000D+00
   304  3.0300000000000D+00  0.0000000000000D+00  0.0000000000000D+00
   305  3.0400000000000D+00  0.0000000000000D+00  0.0000000000000D+00
   306  3.0500000000000D+00  0.0000000000000D+00  0.0000000000000D+00
   307  3.0600000000000D+00  0.0000000000000D+00  0.0000000000000D+00
   308  3.0700000000000D+00  0.0000000000000D+00  0.0000000000000D+00
   309  3.0800000000000D+00  0.0000000000000D+00  0.0000000000000D+00
   310  3.0900000000000D+00  0.0000000000000D+00  0.0000000000000D+00
   311  3.1000000000000D+00  0.0000000000000D+00  0.0000000000000D+00
   312  3.1100000000000D+00  0.0000000000000D+00  0.0000000000000D+00
   313  3.1200000000000D+00  0.0000000000000D+00  0.0000000000000D+00
   314  3.1300000000000D+00  0.0000000000000D+00  0.0000000000000D+00
   315  3.1400000000000D+00  0.0000000000000D+00  0.0000000000000D+00
   316  3.1500000000000D+00  0.0000000000000D+00  0.0000000000000D+00
   317  3.1600000000000D+00  0.0000000000000D+00  0.0000000000000D+00
   318  3.1700000000000D+00  0.0000000000000D+00  0.0000000000000D+00
   319  3.1800000000000D+00  0.0000000000000D+00  0.0000000000000D+00
   320  3.1900000000000D+00  0.0000000000000D+00  0.0000000000000D+00
   321  3.2000000000000D+00  0.0000000000000D+00  0.0000000000000D+00
   322  3.2100000000000D+00  0.0000000000000D+00  0.0000000000000D+00
   323  3.2200000000000D+00  0.0000000000000D+00  0.0000000000000D+00
   324  3.2300000000000D+00  0.0000000000000D+00  0.0000000000000D+00
   325  3.2400000000000D+00  0.0000000000000D+00  0.0000000000000D+00
   326  3.2500000000000D+00  0.0000000000000D+00  0.0000000000000D+00
   327  3.2600000000000D+00  0.0000000000000D+00  0.0000000000000D+00
   328  3.2700000000000D+00  0.0000000000000D+00  0.0000000000000D+00
   329  3.2800000000000D+00  0.0000000000000D+00  0.0000000000000D+00
   330  3.2900000000000D+00  0.0000000000000D+00  0.0000000000000D+00
   331  3.3000000000000D+00  0.0000000000000D+00  0.0000000000000D+00
   332  3.3100000000000D+00  0.0000000000000D+00  0.0000000000000D+00
   333  3.3200000000000D+00  0.0000000000000D+00  0.0000000000000D+00
   334  3.3300000000000D+00  0.0000000000000D+00  0.0000000000000D+00
   335  3.3400000000000D+00  0.0000000000000D+00  0.0000000000000D+00
   336  3.3500000000000D+00  0.0000000000000D+00  0.0000000000000D+00
   337  3.3600000000000D+00  0.0000000000000D+00  0.0000000000000D+00
   338  3.3700000000000D+00  0.0000000000000D+00  0.0000000000000D+00
   339  3.3800000000000D+00  0.0000000000000D+00  0.0000000000000D+00
   340  3.3900000000000D+00  0.0000000000000D+00  0.0000000000000D+00
   341  3.4000000000000D+00  0.0000000000000D+00  0.0000000000000D+00
   342  3.4100000000000D+00  0.0000000000000D+00  0.0000000000000D+00
   343  3.4200000000000D+00  0.0000000000000D+00  0.0000000000000D+00
   344  3.4300000000000D+00  0.0000000000000D+00  0.0000000000000D+00
   345  3.4400000000000D+00  0.0000000000000D+00  0.0000000000000D+00
   346  3.4500000000000D+00  0.0000000000000D+00  0.0000000000000D+00
   347  3.4600000000000D+00  0.0000000000000D+00  0.0000000000000D+00
   348  3.4700000000000D+00  0.0000000000000D+00  0.0000000000000D+00
   349  3.4800000000000D+00  0.0000000000000D+00  0.0000000000000D+00
   350  3.4900000000000D+00  0.0000000000000D+00  0.0000000000000D+00
   351  3.5000000000000D+00  0.0000000000000D+00  0.0000000000000D+00
   352  3.5100000000000D+00  0.0000000000000D+00  0.0000000000000D+00
   353  3.5200000000000D+00  0.0000000000000D+00  0.0000000000000D+00
   354  3.5300000000000D+00  0.0000000000000D+00  0.0000000000000D+00
   355  3.5400000000000D+00  0.0000000000000D+00  0.0000000000000D+00
   356  3.5500000000000D+00  0.0000000000000D+00  0.0000000000000D+00
   357  3.5600000000000D+00  0.0000000000000D+00  0.0000000000000D+00
   358  3.5700000000000D+00  0.0000000000000D+00  0.0000000000000D+00
   359  3.5800000000000D+00  0.0000000000000D+00  0.0000000000000D+00
   360  3.5900000000000D+00  0.0000000000000D+00  0.0000000000000D+00
   361  3.6000000000000D+00  0.0000000000000D+00  0.0000000000000D+00
   362  3.6100000000000D+00  0.0000000000000D+00  0.0000000000000D+00
   363  3.6200000000000D+00  0.0000000000000D+00  0.0000000000000D+00
   364  3.6300000000000D+00  0.0000000000000D+00  0.0000000000000D+00
   365  3.6400000000000D+00  0.0000000000000D+00  0.0000000000000D+00
   366  3.6500000000000D+00  0.0000000000000D+00  0.0000000000000D+00
   367  3.6600000000000D+00  0.0000000000000D+00  0.0000000000000D+00
   368  3.6700000000000D+00  0.0000000000000D+00  0.0000000000000D+00
   369  3.6800000000000D+00  0.0000000000000D+00  0.0000000000000D+00
   370  3.6900000000000D+00  0.0000000000000D+00  0.0000000000000D+00
   371  3.7000000000000D+00  0.0000000000000D+00  0.0000000000000D+00
   372  3.7100000000000D+00  0.0000000000000D+00  0.0000000000000D+00
   373  3.7200000000000D+00  0.0000000000000D+00  0.0000000000000D+00
   374  3.7300000000000D+00  0.0000000000000D+00  0.0000000000000D+00
   375  3.7400000000000D+00  0.0000000000000D+00  0.0000000000000D+00
   376  3.7500000000000D+00  0.0000000000000D+00  0.0000000000000D+00
   377  3.7600000000000D+00  0.0000000000000D+00  0.0000000000000D+00
   378  3.7700000000000D+00  0.0000000000000D+00  0.0000000000000D+00
   379  3.7800000000000D+00  0.0000000000000D+00  0.0000000000000D+00
   380  3.7900000000000D+00  0.0000000000000D+00  0.0000000000000D+00
   381  3.8000000000000D+00  0.0000000000000D+00  0.0000000000000D+00
   382  3.8100000000000D+00  0.0000000000000D+00  0.0000000000000D+00
   383  3.8200000000000D+00  0.0000000000000D+00  0.0000000000000D+00
   384  3.8300000000000D+00  0.0000000000000D+00  0.0000000000000D+00
   385  3.8400000000000D+00  0.0000000000000D+00  0.0000000000000D+00
   386  3.8500000000000D+00  0.0000000000000D+00  0.0000000000000D+00
   387  3.8600000000000D+00  0.0000000000000D+00  0.0000000000000D+00
   388  3.8700000000000D+00  0.0000000000000D+00  0.0000000000000D+00
   389  3.8800000000000D+00  0.0000000000000D+00  0.0000000000000D+00
   390  3.8900000000000D+00  0.0000000000000D+00  0.0000000000000D+00
   391  3.9000000000000D+00  0.0000000000000D+00  0.0000000000000D+00
   392  3.9100000000000D+00  0.0000000000000D+00  0.0000000000000D+00
   393  3.9200000000000D+00  0.0000000000000D+00  0.0000000000000D+00
   394  3.9300000000000D+00  0.0000000000000D+00  0.0000000000000D+00
   395  3.9400000000000D+00  0.0000000000000D+00  0.0000000000000D+00
   396  3.9500000000000D+00  0.0000000000000D+00  0.0000000000000D+00
   397  3.9600000000000D+00  0.0000000000000D+00  0.0000000000000D+00
   398  3.9700000000000D+00  0.0000000000000D+00  0.0000000000000D+00
   399  3.9800000000000D+00  0.0000000000000D+00  0.0000000000000D+00
   400  3.9900000000000D+00  0.0000000000000D+00  0.0000000000000D+00
   401  4.0000000000000D+00  0.0000000000000D+00  0.0000000000000D+00
   402  4.0100000000000D+00  0.0000000000000D+00  0.0000000000000D+00
   403  4.0200000000000D+00  0.0000000000000D+00  0.0000000000000D+00
   404  4.0300000000000D+00  0.0000000000000D+00  0.0000000000000D+00
   405  4.0400000000000D+00  0.0000000000000D+00  0.0000000000000D+00
   406  4.0500000000000D+00  0.0000000000000D+00  0.0000000000000D+00
   407  4.0600000000000D+00  0.0000000000000D+00  0.0000000000000D+00
   408  4.0700000000000D+00  0.0000000000000D+00  0.0000000000000D+00
   409  4.0800000000000D+00  0.0000000000000D+00  0.0000000000000D+00
   410  4.0900000000000D+00  0.0000000000000D+00  0.0000000000000D+00
   411  4.1000000000000D+00  0.0000000000000D+00  0.0000000000000D+00
   412  4.1100000000000D+00  0.0000000000000D+00  0.0000000000000D+00
   413  4.1200000000000D+00  0.0000000000000D+00  0.0000000000000D+00
   414  4.1300000000000D+00  0.0000000000000D+00  0.0000000000000D+00
   415  4.1400000000000D+00  0.0000000000000D+00  0.0000000000000D+00
   416  4.1500000000000D+00  0.0000000000000D+00  0.0000000000000D+00
   417  4.1600000000000D+00  0.0000000000000D+00  0.0000000000000D+00
   418  4.1700000000000D+00  0.0000000000000D+00  0.0000000000000D+00
   419  4.1800000000000D+00  0.0000000000000D+00  0.0000000000000D+00
   420  4.1900000000000D+00  0.0000000000000D+00  0.0000000000000D+00
   421  4.2000000000000D+00  0.0000000000000D+00  0.0000000000000D+00
   422  4.2100000000000D+00  0.0000000000000D+00  0.0000000000000D+00