Cr    ONCVPSP-3.3.0  r_core=   1.10506   1.10506   1.40280
     24.0000     14.0000      220408    zatom,zion,pspd
     8       2   2     4   600     0    pspcod,pspxc,lmax,lloc,mmax,r2well
  5.99000000  0.00000000  0.00000000    rchrg fchrg qchrg
     2     2     2     0     0    nproj
     1     1           extension_switch
   0                         1.6982786725803D+01  1.1657780604893D+00
     1  0.0000000000000D+00 -4.6755416205357D-09  2.5682320159426D-08
     2  1.0000000000000D-02  1.1012610758749D-01 -7.0262474790009D-02
     3  2.0000000000000D-02  2.1980278514921D-01 -1.3970337098024D-01
     4  3.0000000000000D-02  3.2858408005318D-01 -2.0751381030870D-01
     5  4.0000000000000D-02  4.3603093971568D-01 -2.7291003683710D-01
     6  5.0000000000000D-02  5.4171452602160D-01 -3.3514528907170D-01
     7  6.0000000000000D-02  6.4521937047413D-01 -3.9352086421336D-01
     8  7.0000000000000D-02  7.4614632264845D-01 -4.4739613637278D-01
     9  8.0000000000000D-02  8.4411524920003D-01 -4.9619731626928D-01
    10  9.0000000000000D-02  9.3876744630248D-01 -5.3942477081793D-01
    11  1.0000000000000D-01  1.0297677348246D+00 -5.7665875633114D-01
    12  1.1000000000000D-01  1.1168062146425D+00 -6.0756345793997D-01
    13  1.2000000000000D-01  1.1995996620457D+00 -6.3188926930689D-01
    14  1.3000000000000D-01  1.2778925620487D+00 -6.4947328972271D-01
    15  1.4000000000000D-01  1.3514577753681D+00 -6.6023805918127D-01
    16  1.5000000000000D-01  1.4200968476744D+00 -6.6418859491472D-01
    17  1.6000000000000D-01  1.4836399762830D+00 -6.6140783407738D-01
    18  1.7000000000000D-01  1.5419456565196D+00 -6.5205062574690D-01
    19  1.8000000000000D-01  1.5949000364180D+00 -6.3633645019831D-01
    20  1.9000000000000D-01  1.6424160140106D+00 -6.1454107361675D-01
    21  2.0000000000000D-01  1.6844321161240D+00 -5.8698737127679D-01
    22  2.1000000000000D-01  1.7209112011846D+00 -5.5403557109360D-01
    23  2.2000000000000D-01  1.7518390309664D+00 -5.1607318184885D-01
    24  2.3000000000000D-01  1.7772227574438D+00 -4.7350487598553D-01
    25  2.4000000000000D-01  1.7970893708922D+00 -4.2674259548593D-01
    26  2.5000000000000D-01  1.8114841541295D+00 -3.7619614101357D-01
    27  2.6000000000000D-01  1.8204691853469D+00 -3.2226448939863D-01
    28  2.7000000000000D-01  1.8241219283906D+00 -2.6532806304200D-01
    29  2.8000000000000D-01  1.8225339447450D+00 -2.0574214742724D-01
    30  2.9000000000000D-01  1.8158097559342D+00 -1.4383162034302D-01
    31  3.0000000000000D-01  1.8040658787659D+00 -7.9887119440631D-02
    32  3.1000000000000D-01  1.7874300489505D+00 -1.4162734315835D-02
    33  3.2000000000000D-01  1.7660406413236D+00  5.3124733566639D-02
    34  3.3000000000000D-01  1.7400462873826D+00  1.2179494399788D-01
    35  3.4000000000000D-01  1.7096056833177D+00  1.9170166950538D-01
    36  3.5000000000000D-01  1.6748875743857D+00  2.6272901395845D-01
    37  3.6000000000000D-01  1.6360708945352D+00  3.3478632844707D-01
    38  3.7000000000000D-01  1.5933450338523D+00  4.0780199277577D-01
    39  3.8000000000000D-01  1.5469102008219D+00  4.8171626490539D-01
    40  3.9000000000000D-01  1.4969778417694D+00  5.5647342952665D-01
    41  4.0000000000000D-01  1.4437710762858D+00  6.3201349986675D-01
    42  4.1000000000000D-01  1.3875251050741D+00  7.0826374313938D-01
    43  4.2000000000000D-01  1.3284875455587D+00  7.8513030925426D-01
    44  4.3000000000000D-01  1.2669186508306D+00  8.6249024417753D-01
    45  4.4000000000000D-01  1.2030913690738D+00  9.4018416353613D-01
    46  4.5000000000000D-01  1.1372912035168D+00  1.0180098487407D+00
    47  4.6000000000000D-01  1.0698158371253D+00  1.0957170073071D+00
    48  4.7000000000000D-01  1.0009744916093D+00  1.1730034116164D+00
    49  4.8000000000000D-01  9.3108699674297D-01  1.2495125966817D+00
    50  4.9000000000000D-01  8.6048255334070D-01  1.3248332583683D+00
    51  5.0000000000000D-01  7.8949818131951D-01  1.3985004498630D+00
    52  5.1000000000000D-01  7.1847685291032D-01  1.4699986270857D+00
    53  5.2000000000000D-01  6.4776532004211D-01  1.5387665443216D+00
    54  5.3000000000000D-01  5.7771165398840D-01  1.6042039508555D+00
    55  5.4000000000000D-01  5.0866252428980D-01  1.6656799891471D+00
    56  5.5000000000000D-01  4.4096025252416D-01  1.7225431463186D+00
    57  5.6000000000000D-01  3.7493968445407D-01  1.7741325647285D+00
    58  5.7000000000000D-01  3.1092493119704D-01  1.8197904755187D+00
    59  5.8000000000000D-01  2.4922603617933D-01  1.8588754821143D+00
    60  5.9000000000000D-01  1.9013562950172D-01  1.8907763901598D+00
    61  6.0000000000000D-01  1.3392563487773D-01  1.9149262567268D+00
    62  6.1000000000000D-01  8.0844096318302D-02  1.9308163159804D+00
    63  6.2000000000000D-01  3.1112192181391D-02  1.9380094310568D+00
    64  6.3000000000000D-01 -1.5078496990740D-02  1.9361527232325D+00
    65  6.4000000000000D-01 -5.7568403259350D-02  1.9249890395477D+00
    66  6.5000000000000D-01 -9.6232009590531D-02  1.9043669389707D+00
    67  6.6000000000000D-01 -1.3097945854122D-01  1.8742489043365D+00
    68  6.7000000000000D-01 -1.6175768566324D-01  1.8347175225124D+00
    69  6.8000000000000D-01 -1.8855104069616D-01  1.7859794175578D+00
    70  6.9000000000000D-01 -2.1138136946534D-01  1.7283667701875D+00
    71  7.0000000000000D-01 -2.3030754011605D-01  1.6623363103917D+00
    72  7.1000000000000D-01 -2.4542440876207D-01  1.5884657279143D+00
    73  7.2000000000000D-01 -2.5686123138199D-01  1.5074475052311D+00
    74  7.3000000000000D-01 -2.6477954073899D-01  1.4200802390664D+00
    75  7.4000000000000D-01 -2.6937051883578D-01  1.3272575772671D+00
    76  7.5000000000000D-01 -2.7085190674333D-01  1.2299549569409D+00
    77  7.6000000000000D-01 -2.6946450424192D-01  1.1292143854814D+00
    78  7.7000000000000D-01 -2.6546832130020D-01  1.0261275569062D+00
    79  7.8000000000000D-01 -2.5913845179766D-01  9.2181764078513D-01
    80  7.9000000000000D-01 -2.5076074681010D-01  8.1742011853702D-01
    81  8.0000000000000D-01 -2.4062737004994D-01  7.1406307106312D-01
    82  8.1000000000000D-01 -2.2903232152848D-01  6.1284734170401D-01
    83  8.2000000000000D-01 -2.1626701707399D-01  5.1482700872803D-01
    84  8.3000000000000D-01 -2.0261601092941D-01  4.2099060157855D-01
    85  8.4000000000000D-01 -1.8835294624298D-01  3.3224348475405D-01
    86  8.5000000000000D-01 -1.7373681388507D-01  2.4939181258755D-01
    87  8.6000000000000D-01 -1.5900859374465D-01  1.7312842765354D-01
    88  8.7000000000000D-01 -1.4438834458061D-01  1.0402103555552D-01
    89  8.8000000000000D-01 -1.3007279884744D-01  4.2502940544048D-02
    90  8.9000000000000D-01 -1.1623350779738D-01 -1.1133429620143D-02
    91  9.0000000000000D-01 -1.0301556990432D-01 -5.6740043276167D-02
    92  9.1000000000000D-01 -9.0536962480096D-02 -9.4313729739434D-02
    93  9.2000000000000D-01 -7.8888482574372D-02 -1.2399356064510D-01
    94  9.3000000000000D-01 -6.8134289174764D-02 -1.4605519108893D-01
    95  9.4000000000000D-01 -5.8313024677311D-02 -1.6090227606603D-01
    96  9.5000000000000D-01 -4.9439479904852D-02 -1.6905514821915D-01
    97  9.6000000000000D-01 -4.1506753933240D-02 -1.7113701008134D-01
    98  9.7000000000000D-01 -3.4488847950230D-02 -1.6785795622029D-01
    99  9.8000000000000D-01 -2.8343621612285D-02 -1.5999719642596D-01
   100  9.9000000000000D-01 -2.3016031090326D-02 -1.4838389922171D-01
   101  1.0000000000000D+00 -1.8441560623139D-02 -1.3387711333547D-01
   102  1.0100000000000D+00 -1.4549753750635D-02 -1.1734525423798D-01
   103  1.0200000000000D+00 -1.1267746962743D-02 -9.9645660915202D-02
   104  1.0300000000000D+00 -8.5237072852294D-03 -8.1604734593560D-02
   105  1.0400000000000D+00 -6.2500762017375D-03 -6.3999166851363D-02
   106  1.0500000000000D+00 -4.3865256235921D-03 -4.7538747637418D-02
   107  1.0600000000000D+00 -2.8825368347405D-03 -3.2851216906123D-02
   108  1.0700000000000D+00 -1.6997611130827D-03 -2.0475080922473D-02
   109  1.0800000000000D+00 -8.1224497600754D-04 -1.0812424313059D-02
   110  1.0900000000000D+00 -2.1009751646168D-04 -4.1993630518500D-03
   111  1.1000000000000D+00  1.0216851727882D-04 -1.0731730490850D-03
   112  1.1100000000000D+00  1.0708248037059D-04 -1.6024747052556D-04
   113  1.1200000000000D+00 -1.0005346683240D-05  4.9759728068255D-06
   114  1.1300000000000D+00 -6.3507960666429D-06  3.5775119022461D-07
   115  1.1400000000000D+00  3.7924787589986D-06 -2.6698526903998D-06
   116  1.1500000000000D+00 -3.7309490602435D-07  1.2139056032809D-06
   117  1.1600000000000D+00  0.0000000000000D+00  0.0000000000000D+00
   118  1.1700000000000D+00  0.0000000000000D+00  0.0000000000000D+00
   119  1.1800000000000D+00  0.0000000000000D+00  0.0000000000000D+00
   120  1.1900000000000D+00  0.0000000000000D+00  0.0000000000000D+00
   121  1.2000000000000D+00  0.0000000000000D+00  0.0000000000000D+00
   122  1.2100000000000D+00  0.0000000000000D+00  0.0000000000000D+00
   123  1.2200000000000D+00  0.0000000000000D+00  0.0000000000000D+00
   124  1.2300000000000D+00  0.0000000000000D+00  0.0000000000000D+00
   125  1.2400000000000D+00  0.0000000000000D+00  0.0000000000000D+00
   126  1.2500000000000D+00  0.0000000000000D+00  0.0000000000000D+00
   127  1.2600000000000D+00  0.0000000000000D+00  0.0000000000000D+00
   128  1.2700000000000D+00  0.0000000000000D+00  0.0000000000000D+00
   129  1.2800000000000D+00  0.0000000000000D+00  0.0000000000000D+00
   130  1.2900000000000D+00  0.0000000000000D+00  0.0000000000000D+00
   131  1.3000000000000D+00  0.0000000000000D+00  0.0000000000000D+00
   132  1.3100000000000D+00  0.0000000000000D+00  0.0000000000000D+00
   133  1.3200000000000D+00  0.0000000000000D+00  0.0000000000000D+00
   134  1.3300000000000D+00  0.0000000000000D+00  0.0000000000000D+00
   135  1.3400000000000D+00  0.0000000000000D+00  0.0000000000000D+00
   136  1.3500000000000D+00  0.0000000000000D+00  0.0000000000000D+00
   137  1.3600000000000D+00  0.0000000000000D+00  0.0000000000000D+00
   138  1.3700000000000D+00  0.0000000000000D+00  0.0000000000000D+00
   139  1.3800000000000D+00  0.0000000000000D+00  0.0000000000000D+00
   140  1.3900000000000D+00  0.0000000000000D+00  0.0000000000000D+00
   141  1.4000000000000D+00  0.0000000000000D+00  0.0000000000000D+00
   142  1.4100000000000D+00  0.0000000000000D+00  0.0000000000000D+00
   143  1.4200000000000D+00  0.0000000000000D+00  0.0000000000000D+00
   144  1.4300000000000D+00  0.0000000000000D+00  0.0000000000000D+00
   145  1.4400000000000D+00  0.0000000000000D+00  0.0000000000000D+00
   146  1.4500000000000D+00  0.0000000000000D+00  0.0000000000000D+00
   147  1.4600000000000D+00  0.0000000000000D+00  0.0000000000000D+00
   148  1.4700000000000D+00  0.0000000000000D+00  0.0000000000000D+00
   149  1.4800000000000D+00  0.0000000000000D+00  0.0000000000000D+00
   150  1.4900000000000D+00  0.0000000000000D+00  0.0000000000000D+00
   151  1.5000000000000D+00  0.0000000000000D+00  0.0000000000000D+00
   152  1.5100000000000D+00  0.0000000000000D+00  0.0000000000000D+00
   153  1.5200000000000D+00  0.0000000000000D+00  0.0000000000000D+00
   154  1.5300000000000D+00  0.0000000000000D+00  0.0000000000000D+00
   155  1.5400000000000D+00  0.0000000000000D+00  0.0000000000000D+00
   156  1.5500000000000D+00  0.0000000000000D+00  0.0000000000000D+00
   157  1.5600000000000D+00  0.0000000000000D+00  0.0000000000000D+00
   158  1.5700000000000D+00  0.0000000000000D+00  0.0000000000000D+00
   159  1.5800000000000D+00  0.0000000000000D+00  0.0000000000000D+00
   160  1.5900000000000D+00  0.0000000000000D+00  0.0000000000000D+00
   161  1.6000000000000D+00  0.0000000000000D+00  0.0000000000000D+00
   162  1.6100000000000D+00  0.0000000000000D+00  0.0000000000000D+00
   163  1.6200000000000D+00  0.0000000000000D+00  0.0000000000000D+00
   164  1.6300000000000D+00  0.0000000000000D+00  0.0000000000000D+00
   165  1.6400000000000D+00  0.0000000000000D+00  0.0000000000000D+00
   166  1.6500000000000D+00  0.0000000000000D+00  0.0000000000000D+00
   167  1.6600000000000D+00  0.0000000000000D+00  0.0000000000000D+00
   168  1.6700000000000D+00  0.0000000000000D+00  0.0000000000000D+00
   169  1.6800000000000D+00  0.0000000000000D+00  0.0000000000000D+00
   170  1.6900000000000D+00  0.0000000000000D+00  0.0000000000000D+00
   171  1.7000000000000D+00  0.0000000000000D+00  0.0000000000000D+00
   172  1.7100000000000D+00  0.0000000000000D+00  0.0000000000000D+00
   173  1.7200000000000D+00  0.0000000000000D+00  0.0000000000000D+00
   174  1.7300000000000D+00  0.0000000000000D+00  0.0000000000000D+00
   175  1.7400000000000D+00  0.0000000000000D+00  0.0000000000000D+00
   176  1.7500000000000D+00  0.0000000000000D+00  0.0000000000000D+00
   177  1.7600000000000D+00  0.0000000000000D+00  0.0000000000000D+00
   178  1.7700000000000D+00  0.0000000000000D+00  0.0000000000000D+00
   179  1.7800000000000D+00  0.0000000000000D+00  0.0000000000000D+00
   180  1.7900000000000D+00  0.0000000000000D+00  0.0000000000000D+00
   181  1.8000000000000D+00  0.0000000000000D+00  0.0000000000000D+00
   182  1.8100000000000D+00  0.0000000000000D+00  0.0000000000000D+00
   183  1.8200000000000D+00  0.0000000000000D+00  0.0000000000000D+00
   184  1.8300000000000D+00  0.0000000000000D+00  0.0000000000000D+00
   185  1.8400000000000D+00  0.0000000000000D+00  0.0000000000000D+00
   186  1.8500000000000D+00  0.0000000000000D+00  0.0000000000000D+00
   187  1.8600000000000D+00  0.0000000000000D+00  0.0000000000000D+00
   188  1.8700000000000D+00  0.0000000000000D+00  0.0000000000000D+00
   189  1.8800000000000D+00  0.0000000000000D+00  0.0000000000000D+00
   190  1.8900000000000D+00  0.0000000000000D+00  0.0000000000000D+00
   191  1.9000000000000D+00  0.0000000000000D+00  0.0000000000000D+00
   192  1.9100000000000D+00  0.0000000000000D+00  0.0000000000000D+00
   193  1.9200000000000D+00  0.0000000000000D+00  0.0000000000000D+00
   194  1.9300000000000D+00  0.0000000000000D+00  0.0000000000000D+00
   195  1.9400000000000D+00  0.0000000000000D+00  0.0000000000000D+00
   196  1.9500000000000D+00  0.0000000000000D+00  0.0000000000000D+00
   197  1.9600000000000D+00  0.0000000000000D+00  0.0000000000000D+00
   198  1.9700000000000D+00  0.0000000000000D+00  0.0000000000000D+00
   199  1.9800000000000D+00  0.0000000000000D+00  0.0000000000000D+00
   200  1.9900000000000D+00  0.0000000000000D+00  0.0000000000000D+00
   201  2.0000000000000D+00  0.0000000000000D+00  0.0000000000000D+00
   202  2.0100000000000D+00  0.0000000000000D+00  0.0000000000000D+00
   203  2.0200000000000D+00  0.0000000000000D+00  0.0000000000000D+00
   204  2.0300000000000D+00  0.0000000000000D+00  0.0000000000000D+00
   205  2.0400000000000D+00  0.0000000000000D+00  0.0000000000000D+00
   206  2.0500000000000D+00  0.0000000000000D+00  0.0000000000000D+00
   207  2.0600000000000D+00  0.0000000000000D+00  0.0000000000000D+00
   208  2.0700000000000D+00  0.0000000000000D+00  0.0000000000000D+00
   209  2.0800000000000D+00  0.0000000000000D+00  0.0000000000000D+00
   210  2.0900000000000D+00  0.0000000000000D+00  0.0000000000000D+00
   211  2.1000000000000D+00  0.0000000000000D+00  0.0000000000000D+00
   212  2.1100000000000D+00  0.0000000000000D+00  0.0000000000000D+00
   213  2.1200000000000D+00  0.0000000000000D+00  0.0000000000000D+00
   214  2.1300000000000D+00  0.0000000000000D+00  0.0000000000000D+00
   215  2.1400000000000D+00  0.0000000000000D+00  0.0000000000000D+00
   216  2.1500000000000D+00  0.0000000000000D+00  0.0000000000000D+00
   217  2.1600000000000D+00  0.0000000000000D+00  0.0000000000000D+00
   218  2.1700000000000D+00  0.0000000000000D+00  0.0000000000000D+00
   219  2.1800000000000D+00  0.0000000000000D+00  0.0000000000000D+00
   220  2.1900000000000D+00  0.0000000000000D+00  0.0000000000000D+00
   221  2.2000000000000D+00  0.0000000000000D+00  0.0000000000000D+00
   222  2.2100000000000D+00  0.0000000000000D+00  0.0000000000000D+00
   223  2.2200000000000D+00  0.0000000000000D+00  0.0000000000000D+00
   224  2.2300000000000D+00  0.0000000000000D+00  0.0000000000000D+00
   225  2.2400000000000D+00  0.0000000000000D+00  0.0000000000000D+00
   226  2.2500000000000D+00  0.0000000000000D+00  0.0000000000000D+00
   227  2.2600000000000D+00  0.0000000000000D+00  0.0000000000000D+00
   228  2.2700000000000D+00  0.0000000000000D+00  0.0000000000000D+00
   229  2.2800000000000D+00  0.0000000000000D+00  0.0000000000000D+00
   230  2.2900000000000D+00  0.0000000000000D+00  0.0000000000000D+00
   231  2.3000000000000D+00  0.0000000000000D+00  0.0000000000000D+00
   232  2.3100000000000D+00  0.0000000000000D+00  0.0000000000000D+00
   233  2.3200000000000D+00  0.0000000000000D+00  0.0000000000000D+00
   234  2.3300000000000D+00  0.0000000000000D+00  0.0000000000000D+00
   235  2.3400000000000D+00  0.0000000000000D+00  0.0000000000000D+00
   236  2.3500000000000D+00  0.0000000000000D+00  0.0000000000000D+00
   237  2.3600000000000D+00  0.0000000000000D+00  0.0000000000000D+00
   238  2.3700000000000D+00  0.0000000000000D+00  0.0000000000000D+00
   239  2.3800000000000D+00  0.0000000000000D+00  0.0000000000000D+00
   240  2.3900000000000D+00  0.0000000000000D+00  0.0000000000000D+00
   241  2.4000000000000D+00  0.0000000000000D+00  0.0000000000000D+00
   242  2.4100000000000D+00  0.0000000000000D+00  0.0000000000000D+00
   243  2.4200000000000D+00  0.0000000000000D+00  0.0000000000000D+00
   244  2.4300000000000D+00  0.0000000000000D+00  0.0000000000000D+00
   245  2.4400000000000D+00  0.0000000000000D+00  0.0000000000000D+00
   246  2.4500000000000D+00  0.0000000000000D+00  0.0000000000000D+00
   247  2.4600000000000D+00  0.0000000000000D+00  0.0000000000000D+00
   248  2.4700000000000D+00  0.0000000000000D+00  0.0000000000000D+00
   249  2.4800000000000D+00  0.0000000000000D+00  0.0000000000000D+00
   250  2.4900000000000D+00  0.0000000000000D+00  0.0000000000000D+00
   251  2.5000000000000D+00  0.0000000000000D+00  0.0000000000000D+00
   252  2.5100000000000D+00  0.0000000000000D+00  0.0000000000000D+00
   253  2.5200000000000D+00  0.0000000000000D+00  0.0000000000000D+00
   254  2.5300000000000D+00  0.0000000000000D+00  0.0000000000000D+00
   255  2.5400000000000D+00  0.0000000000000D+00  0.0000000000000D+00
   256  2.5500000000000D+00  0.0000000000000D+00  0.0000000000000D+00
   257  2.5600000000000D+00  0.0000000000000D+00  0.0000000000000D+00
   258  2.5700000000000D+00  0.0000000000000D+00  0.0000000000000D+00
   259  2.5800000000000D+00  0.0000000000000D+00  0.0000000000000D+00
   260  2.5900000000000D+00  0.0000000000000D+00  0.0000000000000D+00
   261  2.6000000000000D+00  0.0000000000000D+00  0.0000000000000D+00
   262  2.6100000000000D+00  0.0000000000000D+00  0.0000000000000D+00
   263  2.6200000000000D+00  0.0000000000000D+00  0.0000000000000D+00
   264  2.6300000000000D+00  0.0000000000000D+00  0.0000000000000D+00
   265  2.6400000000000D+00  0.0000000000000D+00  0.0000000000000D+00
   266  2.6500000000000D+00  0.0000000000000D+00  0.0000000000000D+00
   267  2.6600000000000D+00  0.0000000000000D+00  0.0000000000000D+00
   268  2.6700000000000D+00  0.0000000000000D+00  0.0000000000000D+00
   269  2.6800000000000D+00  0.0000000000000D+00  0.0000000000000D+00
   270  2.6900000000000D+00  0.0000000000000D+00  0.0000000000000D+00
   271  2.7000000000000D+00  0.0000000000000D+00  0.0000000000000D+00
   272  2.7100000000000D+00  0.0000000000000D+00  0.0000000000000D+00
   273  2.7200000000000D+00  0.0000000000000D+00  0.0000000000000D+00
   274  2.7300000000000D+00  0.0000000000000D+00  0.0000000000000D+00
   275  2.7400000000000D+00  0.0000000000000D+00  0.0000000000000D+00
   276  2.7500000000000D+00  0.0000000000000D+00  0.0000000000000D+00
   277  2.7600000000000D+00  0.0000000000000D+00  0.0000000000000D+00
   278  2.7700000000000D+00  0.0000000000000D+00  0.0000000000000D+00
   279  2.7800000000000D+00  0.0000000000000D+00  0.0000000000000D+00
   280  2.7900000000000D+00  0.0000000000000D+00  0.0000000000000D+00
   281  2.8000000000000D+00  0.0000000000000D+00  0.0000000000000D+00
   282  2.8100000000000D+00  0.0000000000000D+00  0.0000000000000D+00
   283  2.8200000000000D+00  0.0000000000000D+00  0.0000000000000D+00
   284  2.8300000000000D+00  0.0000000000000D+00  0.0000000000000D+00
   285  2.8400000000000D+00  0.0000000000000D+00  0.0000000000000D+00
   286  2.8500000000000D+00  0.0000000000000D+00  0.0000000000000D+00
   287  2.8600000000000D+00  0.0000000000000D+00  0.0000000000000D+00
   288  2.8700000000000D+00  0.0000000000000D+00  0.0000000000000D+00
   289  2.8800000000000D+00  0.0000000000000D+00  0.0000000000000D+00
   290  2.8900000000000D+00  0.0000000000000D+00  0.0000000000000D+00
   291  2.9000000000000D+00  0.0000000000000D+00  0.0000000000000D+00
   292  2.9100000000000D+00  0.0000000000000D+00  0.0000000000000D+00
   293  2.9200000000000D+00  0.0000000000000D+00  0.0000000000000D+00
   294  2.9300000000000D+00  0.0000000000000D+00  0.0000000000000D+00
   295  2.9400000000000D+00  0.0000000000000D+00  0.0000000000000D+00
   296  2.9500000000000D+00  0.0000000000000D+00  0.0000000000000D+00
   297  2.9600000000000D+00  0.0000000000000D+00  0.0000000000000D+00
   298  2.9700000000000D+00  0.0000000000000D+00  0.0000000000000D+00
   299  2.9800000000000D+00  0.0000000000000D+00  0.0000000000000D+00
   300  2.9900000000000D+00  0.0000000000000D+00  0.0000000000000D+00
   301  3.0000000000000D+00  0.0000000000000D+00  0.0000000000000D+00
   302  3.0100000000000D+00  0.0000000000000D+00  0.0000000000000D+00
   303  3.0200000000000D+00  0.0000000000000D+00  0.0000000000000D+00
   304  3.0300000000000D+00  0.0000000000000D+00  0.0000000000000D+00
   305  3.0400000000000D+00  0.0000000000000D+00  0.0000000000000D+00
   306  3.0500000000000D+00  0.0000000000000D+00  0.0000000000000D+00
   307  3.0600000000000D+00  0.0000000000000D+00  0.0000000000000D+00
   308  3.0700000000000D+00  0.0000000000000D+00  0.0000000000000D+00
   309  3.0800000000000D+00  0.0000000000000D+00  0.0000000000000D+00
   310  3.0900000000000D+00  0.0000000000000D+00  0.0000000000000D+00
   311  3.1000000000000D+00  0.0000000000000D+00  0.0000000000000D+00
   312  3.1100000000000D+00  0.0000000000000D+00  0.0000000000000D+00
   313  3.1200000000000D+00  0.0000000000000D+00  0.0000000000000D+00
   314  3.1300000000000D+00  0.0000000000000D+00  0.0000000000000D+00
   315  3.1400000000000D+00  0.0000000000000D+00  0.0000000000000D+00
   316  3.1500000000000D+00  0.0000000000000D+00  0.0000000000000D+00
   317  3.1600000000000D+00  0.0000000000000D+00  0.0000000000000D+00
   318  3.1700000000000D+00  0.0000000000000D+00  0.0000000000000D+00
   319  3.1800000000000D+00  0.0000000000000D+00  0.0000000000000D+00
   320  3.1900000000000D+00  0.0000000000000D+00  0.0000000000000D+00
   321  3.2000000000000D+00  0.0000000000000D+00  0.0000000000000D+00
   322  3.2100000000000D+00  0.0000000000000D+00  0.0000000000000D+00
   323  3.2200000000000D+00  0.0000000000000D+00  0.0000000000000D+00
   324  3.2300000000000D+00  0.0000000000000D+00  0.0000000000000D+00
   325  3.2400000000000D+00  0.0000000000000D+00  0.0000000000000D+00
   326  3.2500000000000D+00  0.0000000000000D+00  0.0000000000000D+00
   327  3.2600000000000D+00  0.0000000000000D+00  0.0000000000000D+00
   328  3.2700000000000D+00  0.0000000000000D+00  0.0000000000000D+00
   329  3.2800000000000D+00  0.0000000000000D+00  0.0000000000000D+00
   330  3.2900000000000D+00  0.0000000000000D+00  0.0000000000000D+00
   331  3.3000000000000D+00  0.0000000000000D+00  0.0000000000000D+00
   332  3.3100000000000D+00  0.0000000000000D+00  0.0000000000000D+00
   333  3.3200000000000D+00  0.0000000000000D+00  0.0000000000000D+00
   334  3.3300000000000D+00  0.0000000000000D+00  0.0000000000000D+00
   335  3.3400000000000D+00  0.0000000000000D+00  0.0000000000000D+00
   336  3.3500000000000D+00  0.0000000000000D+00  0.0000000000000D+00
   337  3.3600000000000D+00  0.0000000000000D+00  0.0000000000000D+00
   338  3.3700000000000D+00  0.0000000000000D+00  0.0000000000000D+00
   339  3.3800000000000D+00  0.0000000000000D+00  0.0000000000000D+00
   340  3.3900000000000D+00  0.0000000000000D+00  0.0000000000000D+00
   341  3.4000000000000D+00  0.0000000000000D+00  0.0000000000000D+00
   342  3.4100000000000D+00  0.0000000000000D+00  0.0000000000000D+00
   343  3.4200000000000D+00  0.0000000000000D+00  0.0000000000000D+00
   344  3.4300000000000D+00  0.0000000000000D+00  0.0000000000000D+00
   345  3.4400000000000D+00  0.0000000000000D+00  0.0000000000000D+00
   346  3.4500000000000D+00  0.0000000000000D+00  0.0000000000000D+00
   347  3.4600000000000D+00  0.0000000000000D+00  0.0000000000000D+00
   348  3.4700000000000D+00  0.0000000000000D+00  0.0000000000000D+00
   349  3.4800000000000D+00  0.0000000000000D+00  0.0000000000000D+00
   350  3.4900000000000D+00  0.0000000000000D+00  0.0000000000000D+00
   351  3.5000000000000D+00  0.0000000000000D+00  0.0000000000000D+00
   352  3.5100000000000D+00  0.0000000000000D+00  0.0000000000000D+00
   353  3.5200000000000D+00  0.0000000000000D+00  0.0000000000000D+00
   354  3.5300000000000D+00  0.0000000000000D+00  0.0000000000000D+00
   355  3.5400000000000D+00  0.0000000000000D+00  0.0000000000000D+00
   356  3.5500000000000D+00  0.0000000000000D+00  0.0000000000000D+00
   357  3.5600000000000D+00  0.0000000000000D+00  0.0000000000000D+00
   358  3.5700000000000D+00  0.0000000000000D+00  0.0000000000000D+00
   359  3.5800000000000D+00  0.0000000000000D+00  0.0000000000000D+00
   360  3.5900000000000D+00  0.0000000000000D+00  0.0000000000000D+00
   361  3.6000000000000D+00  0.0000000000000D+00  0.0000000000000D+00
   362  3.6100000000000D+00  0.0000000000000D+00  0.0000000000000D+00
   363  3.6200000000000D+00  0.0000000000000D+00  0.0000000000000D+00
   364  3.6300000000000D+00  0.0000000000000D+00  0.0000000000000D+00
   365  3.6400000000000D+00  0.0000000000000D+00  0.0000000000000D+00
   366  3.6500000000000D+00  0.0000000000000D+00  0.0000000000000D+00
   367  3.6600000000000D+00  0.0000000000000D+00  0.0000000000000D+00
   368  3.6700000000000D+00  0.0000000000000D+00  0.0000000000000D+00
   369  3.6800000000000D+00  0.0000000000000D+00  0.0000000000000D+00
   370  3.6900000000000D+00  0.0000000000000D+00  0.0000000000000D+00
   371  3.7000000000000D+00  0.0000000000000D+00  0.0000000000000D+00
   372  3.7100000000000D+00  0.0000000000000D+00  0.0000000000000D+00
   373  3.7200000000000D+00  0.0000000000000D+00  0.0000000000000D+00
   374  3.7300000000000D+00  0.0000000000000D+00  0.0000000000000D+00
   375  3.7400000000000D+00  0.0000000000000D+00  0.0000000000000D+00
   376  3.7500000000000D+00  0.0000000000000D+00  0.0000000000000D+00
   377  3.7600000000000D+00  0.0000000000000D+00  0.0000000000000D+00
   378  3.7700000000000D+00  0.0000000000000D+00  0.0000000000000D+00
   379  3.7800000000000D+00  0.0000000000000D+00  0.0000000000000D+00
   380  3.7900000000000D+00  0.0000000000000D+00  0.0000000000000D+00
   381  3.8000000000000D+00  0.0000000000000D+00  0.0000000000000D+00
   382  3.8100000000000D+00  0.0000000000000D+00  0.0000000000000D+00
   383  3.8200000000000D+00  0.0000000000000D+00  0.0000000000000D+00
   384  3.8300000000000D+00  0.0000000000000D+00  0.0000000000000D+00
   385  3.8400000000000D+00  0.0000000000000D+00  0.0000000000000D+00
   386  3.8500000000000D+00  0.0000000000000D+00  0.0000000000000D+00
   387  3.8600000000000D+00  0.0000000000000D+00  0.0000000000000D+00
   388  3.8700000000000D+00  0.0000000000000D+00  0.0000000000000D+00
   389  3.8800000000000D+00  0.0000000000000D+00  0.0000000000000D+00
   390  3.8900000000000D+00  0.0000000000000D+00  0.0000000000000D+00
   391  3.9000000000000D+00  0.0000000000000D+00  0.0000000000000D+00
   392  3.9100000000000D+00  0.0000000000000D+00  0.0000000000000D+00
   393  3.9200000000000D+00  0.0000000000000D+00  0.0000000000000D+00
   394  3.9300000000000D+00  0.0000000000000D+00  0.0000000000000D+00
   395  3.9400000000000D+00  0.0000000000000D+00  0.0000000000000D+00
   396  3.9500000000000D+00  0.0000000000000D+00  0.0000000000000D+00
   397  3.9600000000000D+00  0.0000000000000D+00  0.0000000000000D+00
   398  3.9700000000000D+00  0.0000000000000D+00  0.0000000000000D+00
   399  3.9800000000000D+00  0.0000000000000D+00  0.0000000000000D+00
   400  3.9900000000000D+00  0.0000000000000D+00  0.0000000000000D+00
   401  4.0000000000000D+00  0.0000000000000D+00  0.0000000000000D+00
   402  4.0100000000000D+00  0.0000000000000D+00  0.0000000000000D+00
   403  4.0200000000000D+00  0.0000000000000D+00  0.0000000000000D+00
   404  4.0300000000000D+00  0.0000000000000D+00  0.0000000000000D+00
   405  4.0400000000000D+00  0.0000000000000D+00  0.0000000000000D+00
   406  4.0500000000000D+00  0.0000000000000D+00  0.0000000000000D+00
   407  4.0600000000000D+00  0.0000000000000D+00  0.0000000000000D+00
   408  4.0700000000000D+00  0.0000000000000D+00  0.0000000000000D+00
   409  4.0800000000000D+00  0.0000000000000D+00  0.0000000000000D+00
   410  4.0900000000000D+00  0.0000000000000D+00  0.0000000000000D+00
   411  4.1000000000000D+00  0.0000000000000D+00  0.0000000000000D+00
   412  4.1100000000000D+00  0.0000000000000D+00  0.0000000000000D+00
   413  4.1200000000000D+00  0.0000000000000D+00  0.0000000000000D+00
   414  4.1300000000000D+00  0.0000000000000D+00  0.0000000000000D+00
   415  4.1400000000000D+00  0.0000000000000D+00  0.0000000000000D+00
   416  4.1500000000000D+00  0.0000000000000D+00  0.0000000000000D+00
   417  4.1600000000000D+00  0.0000000000000D+00  0.0000000000000D+00
   418  4.1700000000000D+00  0.0000000000000D+00  0.0000000000000D+00
   419  4.1800000000000D+00  0.0000000000000D+00  0.0000000000000D+00
   420  4.1900000000000D+00  0.0000000000000D+00  0.0000000000000D+00
   421  4.2000000000000D+00  0.0000000000000D+00  0.0000000000000D+00
   422  4.2100000000000D+00  0.0000000000000D+00  0.0000000000000D+00