Mg    ONCVPSP-3.3.0  r_core=   1.16056   1.56380
     12.0000     10.0000      220408    zatom,zion,pspd
     8       2   1     4   400     0    pspcod,pspxc,lmax,lloc,mmax,r2well
  3.99000000  0.00000000  0.00000000    rchrg fchrg qchrg
     2     2     0     0     0    nproj
     1     1           extension_switch
   0                         2.2262533545260D+00 -8.4703337426535D-01
     1  0.0000000000000D+00 -2.0696101832307D-08 -6.5620853195725D-10
     2  1.0000000000000D-02  1.2311104032393D-01  3.2468919006236D-02
     3  2.0000000000000D-02  2.4534260576550D-01  6.4948888501886D-02
     4  3.0000000000000D-02  3.6582738529347D-01  9.7450901358329D-02
     5  4.0000000000000D-02  4.8372215002869D-01  1.2998582993530D-01
     6  5.0000000000000D-02  5.9821918592325D-01  1.6256435281098D-01
     7  6.0000000000000D-02  7.0855701157989D-01  1.9519686638018D-01
     8  7.0000000000000D-02  8.1403016791835D-01  2.2789337707239D-01
     9  8.0000000000000D-02  9.1399788709135D-01  2.6066337059720D-01
    10  9.0000000000000D-02  1.0078914730337D+00  2.9351565541374D-01
    11  1.0000000000000D-01  1.0952202547299D+00  3.2645817852208D-01
    12  1.1000000000000D-01  1.1755760050612D+00  3.5949781266598D-01
    13  1.2000000000000D-01  1.2486357522235D+00  3.9264011509252D-01
    14  1.3000000000000D-01  1.3141629464239D+00  4.2588905910769D-01
    15  1.4000000000000D-01  1.3720069810552D+00  4.5924674077038D-01
    16  1.5000000000000D-01  1.4221011039907D+00  4.9271306415056D-01
    17  1.6000000000000D-01  1.4644587902075D+00  5.2628540961346D-01
    18  1.7000000000000D-01  1.4991686808345D+00  5.5995829055111D-01
    19  1.8000000000000D-01  1.5263882251476D+00  5.9372300484045D-01
    20  1.9000000000000D-01  1.5463361903038D+00  6.2756728803831D-01
    21  2.0000000000000D-01  1.5592842280486D+00  6.6147497590676D-01
    22  2.1000000000000D-01  1.5655477077122D+00  6.9542568427958D-01
    23  2.2000000000000D-01  1.5654760400445D+00  7.2939451451611D-01
    24  2.3000000000000D-01  1.5594427264938D+00  7.6335179283376D-01
    25  2.4000000000000D-01  1.5478353731572D+00  7.9726285165654D-01
    26  2.5000000000000D-01  1.5310459077218D+00  8.3108786076473D-01
    27  2.6000000000000D-01  1.5094612312767D+00  8.6478171548070D-01
    28  2.7000000000000D-01  1.4834545250544D+00  8.9829398838776D-01
    29  2.8000000000000D-01  1.4533774152088D+00  9.3156895016291D-01
    30  2.9000000000000D-01  1.4195531770418D+00  9.6454566402792D-01
    31  3.0000000000000D-01  1.3822711341367D+00  9.9715815710583D-01
    32  3.1000000000000D-01  1.3417823782321D+00  1.0293356706359D+00
    33  3.2000000000000D-01  1.2982969030474D+00  1.0610029895760D+00
    34  3.3000000000000D-01  1.2519822103986D+00  1.0920808506360D+00
    35  3.4000000000000D-01  1.2029634106160D+00  1.1224864262712D+00
    36  3.5000000000000D-01  1.1513248023308D+00  1.1521338806545D+00
    37  3.6000000000000D-01  1.0971128799923D+00  1.1809349921650D+00
    38  3.7000000000000D-01  1.0403406818605D+00  1.2087998355278D+00
    39  3.8000000000000D-01  9.8099335752455D-01  1.2356375154271D+00
    40  3.9000000000000D-01  9.1903480301771D-01  1.2613569422345D+00
    41  4.0000000000000D-01  8.5441518407126D-01  1.2858676394746D+00
    42  4.1000000000000D-01  7.8707914462782D-01  1.3090805718057D+00
    43  4.2000000000000D-01  7.1697447899546D-01  1.3309089816552D+00
    44  4.3000000000000D-01  6.4406103242875D-01  1.3512692222297D+00
    45  4.4000000000000D-01  5.6831958682501D-01  1.3700815744292D+00
    46  4.5000000000000D-01  4.8976048585050D-01  1.3872710352478D+00
    47  4.6000000000000D-01  4.0843175726120D-01  1.4027680655323D+00
    48  4.7000000000000D-01  3.2442649941921D-01  1.4165092855036D+00
    49  4.8000000000000D-01  2.3788931386434D-01  1.4284381072031D+00
    50  4.9000000000000D-01  1.4902158598030D-01  1.4385052940137D+00
    51  5.0000000000000D-01  5.8085440883616D-02  1.4466694385769D+00
    52  5.1000000000000D-01 -3.4593768900436D-02  1.4528973517960D+00
    53  5.2000000000000D-01 -1.2862655422561D-01  1.4571643571223D+00
    54  5.3000000000000D-01 -2.2356003265679D-01  1.4594544859609D+00
    55  5.4000000000000D-01 -3.1888036009774D-01  1.4597605717577D+00
    56  5.5000000000000D-01 -4.1401684675180D-01  1.4580842421155D+00
    57  5.6000000000000D-01 -5.0834771335921D-01  1.4544358100904D+00
    58  5.7000000000000D-01 -6.0120740405982D-01  1.4488340676087D+00
    59  5.8000000000000D-01 -6.9189533395530D-01  1.4413059856801D+00
    60  5.9000000000000D-01 -7.7968591361211D-01  1.4318863277310D+00
    61  6.0000000000000D-01 -8.6383965986893D-01  1.4206171839077D+00
    62  6.1000000000000D-01 -9.4361517353655D-01  1.4075474355667D+00
    63  6.2000000000000D-01 -1.0182817402807D+00  1.3927321603623D+00
    64  6.3000000000000D-01 -1.0871322919781D+00  1.3762319893192D+00
    65  6.4000000000000D-01 -1.1494964525365D+00  1.3581124280301D+00
    66  6.5000000000000D-01 -1.2047533849049D+00  1.3384431546295D+00
    67  6.6000000000000D-01 -1.2523441550955D+00  1.3172973074455D+00
    68  6.7000000000000D-01 -1.2917833344482D+00  1.2947507752295D+00
    69  6.8000000000000D-01 -1.3226695731941D+00  1.2708815025937D+00
    70  6.9000000000000D-01 -1.3446948963166D+00  1.2457688227696D+00
    71  7.0000000000000D-01 -1.3576524963360D+00  1.2194928290390D+00
    72  7.1000000000000D-01 -1.3614428267989D+00  1.1921337951981D+00
    73  7.2000000000000D-01 -1.3560778339828D+00  1.1637716542220D+00
    74  7.3000000000000D-01 -1.3416832021108D+00  1.1344855429250D+00
    75  7.4000000000000D-01 -1.3184985284755D+00  1.1043534188845D+00
    76  7.5000000000000D-01 -1.2868753880203D+00  1.0734517542630D+00
    77  7.6000000000000D-01 -1.2472732919095D+00  1.0418553094299D+00
    78  7.7000000000000D-01 -1.2002535896047D+00  1.0096369875249D+00
    79  7.8000000000000D-01 -1.1464714085586D+00  9.7686776932322D-01
    80  7.9000000000000D-01 -1.0866657685964D+00  9.4361672602426D-01
    81  8.0000000000000D-01 -1.0216480484561D+00  9.0995110590321D-01
    82  8.1000000000000D-01 -9.5228901888231D-01  8.7593648919758D-01
    83  8.2000000000000D-01 -8.7950468926761D-01  8.4163700416276D-01
    84  8.3000000000000D-01 -8.0424124235067D-01  8.0711559596506D-01
    85  8.4000000000000D-01 -7.2745935325918D-01  7.7243433900754D-01
    86  8.5000000000000D-01 -6.5011820470130D-01  7.3765478242827D-01
    87  8.6000000000000D-01 -5.7315951896851D-01  7.0283831788877D-01
    88  8.7000000000000D-01 -4.9749192936741D-01  6.6804655839504D-01
    89  8.8000000000000D-01 -4.2397600865277D-01  6.3334171677135D-01
    90  8.9000000000000D-01 -3.5341026004877D-01  5.9878697253888D-01
    91  9.0000000000000D-01 -2.8651835773154D-01  5.6444681633274D-01
    92  9.1000000000000D-01 -2.2393789857144D-01  5.3038736161198D-01
    93  9.2000000000000D-01 -1.6621089600169D-01  4.9667661426211D-01
    94  9.3000000000000D-01 -1.1377621073571D-01  4.6338469173803D-01
    95  9.4000000000000D-01 -6.6964072456102D-02  4.3058398462257D-01
    96  9.5000000000000D-01 -2.5992802407815D-02  3.9834925485211D-01
    97  9.6000000000000D-01  9.0322000061982D-03  3.6675766635516D-01
    98  9.7000000000000D-01  3.8117191958550D-02  3.3588874542512D-01
    99  9.8000000000000D-01  6.1376577765901D-02  3.0582426977557D-01
   100  9.9000000000000D-01  7.9027238411857D-02  2.7664808686014D-01
   101  1.0000000000000D+00  9.1380829301513D-02  2.4844586361173D-01
   102  1.0100000000000D+00  9.8834221493399D-02  2.2130477134630D-01
   103  1.0200000000000D+00  1.0185830118398D-01  1.9531311096698D-01
   104  1.0300000000000D+00  1.0098537913374D-01  1.7055988492453D-01
   105  1.0400000000000D+00  9.6795492704523D-02  1.4713432352461D-01
   106  1.0500000000000D+00  8.9901908425082D-02  1.2512537413158D-01
   107  1.0600000000000D+00  8.0936150667121D-02  1.0462116251419D-01
   108  1.0700000000000D+00  7.0532896960457D-02  8.5708436550073D-02
   109  1.0800000000000D+00  5.9315069847379D-02  6.8471999701121D-02
   110  1.0900000000000D+00  4.7879511528690D-02  5.2994154358553D-02
   111  1.1000000000000D+00  3.6783362755546D-02  3.9354121896412D-02
   112  1.1100000000000D+00  2.6532189661382D-02  2.7627607087810D-02
   113  1.1200000000000D+00  1.7567073714589D-02  1.7885993150789D-02
   114  1.1300000000000D+00  1.0252343253331D-02  1.0197036883490D-02
   115  1.1400000000000D+00  4.8118387642412D-03  4.5811547138285D-03
   116  1.1500000000000D+00  1.5852377726706D-03  1.2272335244042D-03
   117  1.1600000000000D+00  3.6181647358459D-04 -3.0308050839751D-05
   118  1.1700000000000D+00  3.3549887656067D-05 -8.8603996580798D-05
   119  1.1800000000000D+00 -4.0339747111539D-06  3.8046861969779D-05
   120  1.1900000000000D+00  9.3193008838454D-07 -2.6092553945068D-06
   121  1.2000000000000D+00  1.0392214288310D-06 -4.0054246381107D-06
   122  1.2100000000000D+00 -9.3390333580817D-07  1.5716415986786D-07
   123  1.2200000000000D+00  0.0000000000000D+00  0.0000000000000D+00
   124  1.2300000000000D+00  0.0000000000000D+00  0.0000000000000D+00
   125  1.2400000000000D+00  0.0000000000000D+00  0.0000000000000D+00
   126  1.2500000000000D+00  0.0000000000000D+00  0.0000000000000D+00
   127  1.2600000000000D+00  0.0000000000000D+00  0.0000000000000D+00
   128  1.2700000000000D+00  0.0000000000000D+00  0.0000000000000D+00
   129  1.2800000000000D+00  0.0000000000000D+00  0.0000000000000D+00
   130  1.2900000000000D+00  0.0000000000000D+00  0.0000000000000D+00
   131  1.3000000000000D+00  0.0000000000000D+00  0.0000000000000D+00
   132  1.3100000000000D+00  0.0000000000000D+00  0.0000000000000D+00
   133  1.3200000000000D+00  0.0000000000000D+00  0.0000000000000D+00
   134  1.3300000000000D+00  0.0000000000000D+00  0.0000000000000D+00
   135  1.3400000000000D+00  0.0000000000000D+00  0.0000000000000D+00
   136  1.3500000000000D+00  0.0000000000000D+00  0.0000000000000D+00
   137  1.3600000000000D+00  0.0000000000000D+00  0.0000000000000D+00
   138  1.3700000000000D+00  0.0000000000000D+00  0.0000000000000D+00
   139  1.3800000000000D+00  0.0000000000000D+00  0.0000000000000D+00
   140  1.3900000000000D+00  0.0000000000000D+00  0.0000000000000D+00
   141  1.4000000000000D+00  0.0000000000000D+00  0.0000000000000D+00
   142  1.4100000000000D+00  0.0000000000000D+00  0.0000000000000D+00
   143  1.4200000000000D+00  0.0000000000000D+00  0.0000000000000D+00
   144  1.4300000000000D+00  0.0000000000000D+00  0.0000000000000D+00
   145  1.4400000000000D+00  0.0000000000000D+00  0.0000000000000D+00
   146  1.4500000000000D+00  0.0000000000000D+00  0.0000000000000D+00
   147  1.4600000000000D+00  0.0000000000000D+00  0.0000000000000D+00
   148  1.4700000000000D+00  0.0000000000000D+00  0.0000000000000D+00
   149  1.4800000000000D+00  0.0000000000000D+00  0.0000000000000D+00
   150  1.4900000000000D+00  0.0000000000000D+00  0.0000000000000D+00
   151  1.5000000000000D+00  0.0000000000000D+00  0.0000000000000D+00
   152  1.5100000000000D+00  0.0000000000000D+00  0.0000000000000D+00
   153  1.5200000000000D+00  0.0000000000000D+00  0.0000000000000D+00
   154  1.5300000000000D+00  0.0000000000000D+00  0.0000000000000D+00
   155  1.5400000000000D+00  0.0000000000000D+00  0.0000000000000D+00
   156  1.5500000000000D+00  0.0000000000000D+00  0.0000000000000D+00
   157  1.5600000000000D+00  0.0000000000000D+00  0.0000000000000D+00
   158  1.5700000000000D+00  0.0000000000000D+00  0.0000000000000D+00
   159  1.5800000000000D+00  0.0000000000000D+00  0.0000000000000D+00
   160  1.5900000000000D+00  0.0000000000000D+00  0.0000000000000D+00
   161  1.6000000000000D+00  0.0000000000000D+00  0.0000000000000D+00
   162  1.6100000000000D+00  0.0000000000000D+00  0.0000000000000D+00
   163  1.6200000000000D+00  0.0000000000000D+00  0.0000000000000D+00
   164  1.6300000000000D+00  0.0000000000000D+00  0.0000000000000D+00
   165  1.6400000000000D+00  0.0000000000000D+00  0.0000000000000D+00
   166  1.6500000000000D+00  0.0000000000000D+00  0.0000000000000D+00
   167  1.6600000000000D+00  0.0000000000000D+00  0.0000000000000D+00
   168  1.6700000000000D+00  0.0000000000000D+00  0.0000000000000D+00
   169  1.6800000000000D+00  0.0000000000000D+00  0.0000000000000D+00
   170  1.6900000000000D+00  0.0000000000000D+00  0.0000000000000D+00
   171  1.7000000000000D+00  0.0000000000000D+00  0.0000000000000D+00
   172  1.7100000000000D+00  0.0000000000000D+00  0.0000000000000D+00
   173  1.7200000000000D+00  0.0000000000000D+00  0.0000000000000D+00
   174  1.7300000000000D+00  0.0000000000000D+00  0.0000000000000D+00
   175  1.7400000000000D+00  0.0000000000000D+00  0.0000000000000D+00
   176  1.7500000000000D+00  0.0000000000000D+00  0.0000000000000D+00
   177  1.7600000000000D+00  0.0000000000000D+00  0.0000000000000D+00
   178  1.7700000000000D+00  0.0000000000000D+00  0.0000000000000D+00
   179  1.7800000000000D+00  0.0000000000000D+00  0.0000000000000D+00
   180  1.7900000000000D+00  0.0000000000000D+00  0.0000000000000D+00
   181  1.8000000000000D+00  0.0000000000000D+00  0.0000000000000D+00
   182  1.8100000000000D+00  0.0000000000000D+00  0.0000000000000D+00
   183  1.8200000000000D+00  0.0000000000000D+00  0.0000000000000D+00
   184  1.8300000000000D+00  0.0000000000000D+00  0.0000000000000D+00
   185  1.8400000000000D+00  0.0000000000000D+00  0.0000000000000D+00
   186  1.8500000000000D+00  0.0000000000000D+00  0.0000000000000D+00
   187  1.8600000000000D+00  0.0000000000000D+00  0.0000000000000D+00
   188  1.8700000000000D+00  0.0000000000000D+00  0.0000000000000D+00
   189  1.8800000000000D+00  0.0000000000000D+00  0.0000000000000D+00
   190  1.8900000000000D+00  0.0000000000000D+00  0.0000000000000D+00
   191  1.9000000000000D+00  0.0000000000000D+00  0.0000000000000D+00
   192  1.9100000000000D+00  0.0000000000000D+00  0.0000000000000D+00
   193  1.9200000000000D+00  0.0000000000000D+00  0.0000000000000D+00
   194  1.9300000000000D+00  0.0000000000000D+00  0.0000000000000D+00
   195  1.9400000000000D+00  0.0000000000000D+00  0.0000000000000D+00
   196  1.9500000000000D+00  0.0000000000000D+00  0.0000000000000D+00
   197  1.9600000000000D+00  0.0000000000000D+00  0.0000000000000D+00
   198  1.9700000000000D+00  0.0000000000000D+00  0.0000000000000D+00
   199  1.9800000000000D+00  0.0000000000000D+00  0.0000000000000D+00
   200  1.9900000000000D+00  0.0000000000000D+00  0.0000000000000D+00
   201  2.0000000000000D+00  0.0000000000000D+00  0.0000000000000D+00
   202  2.0100000000000D+00  0.0000000000000D+00  0.0000000000000D+00
   203  2.0200000000000D+00  0.0000000000000D+00  0.0000000000000D+00
   204  2.0300000000000D+00  0.0000000000000D+00  0.0000000000000D+00
   205  2.0400000000000D+00  0.0000000000000D+00  0.0000000000000D+00
   206  2.0500000000000D+00  0.0000000000000D+00  0.0000000000000D+00
   207  2.0600000000000D+00  0.0000000000000D+00  0.0000000000000D+00
   208  2.0700000000000D+00  0.0000000000000D+00  0.0000000000000D+00
   209  2.0800000000000D+00  0.0000000000000D+00  0.0000000000000D+00
   210  2.0900000000000D+00  0.0000000000000D+00  0.0000000000000D+00
   211  2.1000000000000D+00  0.0000000000000D+00  0.0000000000000D+00
   212  2.1100000000000D+00  0.0000000000000D+00  0.0000000000000D+00
   213  2.1200000000000D+00  0.0000000000000D+00  0.0000000000000D+00
   214  2.1300000000000D+00  0.0000000000000D+00  0.0000000000000D+00
   215  2.1400000000000D+00  0.0000000000000D+00  0.0000000000000D+00
   216  2.1500000000000D+00  0.0000000000000D+00  0.0000000000000D+00
   217  2.1600000000000D+00  0.0000000000000D+00  0.0000000000000D+00
   218  2.1700000000000D+00  0.0000000000000D+00  0.0000000000000D+00
   219  2.1800000000000D+00  0.0000000000000D+00  0.0000000000000D+00
   220  2.1900000000000D+00  0.0000000000000D+00  0.0000000000000D+00
   221  2.2000000000000D+00  0.0000000000000D+00  0.0000000000000D+00
   222  2.2100000000000D+00  0.0000000000000D+00  0.0000000000000D+00
   223  2.2200000000000D+00  0.0000000000000D+00  0.0000000000000D+00
   224  2.2300000000000D+00  0.0000000000000D+00  0.0000000000000D+00
   225  2.2400000000000D+00  0.0000000000000D+00  0.0000000000000D+00
   226  2.2500000000000D+00  0.0000000000000D+00  0.0000000000000D+00
   227  2.2600000000000D+00  0.0000000000000D+00  0.0000000000000D+00
   228  2.2700000000000D+00  0.0000000000000D+00  0.0000000000000D+00
   229  2.2800000000000D+00  0.0000000000000D+00  0.0000000000000D+00
   230  2.2900000000000D+00  0.0000000000000D+00  0.0000000000000D+00
   231  2.3000000000000D+00  0.0000000000000D+00  0.0000000000000D+00
   232  2.3100000000000D+00  0.0000000000000D+00  0.0000000000000D+00
   233  2.3200000000000D+00  0.0000000000000D+00  0.0000000000000D+00
   234  2.3300000000000D+00  0.0000000000000D+00  0.0000000000000D+00
   235  2.3400000000000D+00  0.0000000000000D+00  0.0000000000000D+00
   236  2.3500000000000D+00  0.0000000000000D+00  0.0000000000000D+00
   237  2.3600000000000D+00  0.0000000000000D+00  0.0000000000000D+00
   238  2.3700000000000D+00  0.0000000000000D+00  0.0000000000000D+00
   239  2.3800000000000D+00  0.0000000000000D+00  0.0000000000000D+00
   240  2.3900000000000D+00  0.0000000000000D+00  0.0000000000000D+00
   241  2.4000000000000D+00  0.0000000000000D+00  0.0000000000000D+00
   242  2.4100000000000D+00  0.0000000000000D+00  0.0000000000000D+00
   243  2.4200000000000D+00  0.0000000000000D+00  0.0000000000000D+00
   244  2.4300000000000D+00  0.0000000000000D+00  0.0000000000000D+00
   245  2.4400000000000D+00  0.0000000000000D+00  0.0000000000000D+00
   246  2.4500000000000D+00  0.0000000000000D+00  0.0000000000000D+00
   247  2.4600000000000D+00  0.0000000000000D+00  0.0000000000000D+00
   248  2.4700000000000D+00  0.0000000000000D+00  0.0000000000000D+00
   249  2.4800000000000D+00  0.0000000000000D+00  0.0000000000000D+00
   250  2.4900000000000D+00  0.0000000000000D+00  0.0000000000000D+00
   251  2.5000000000000D+00  0.0000000000000D+00  0.0000000000000D+00
   252  2.5100000000000D+00  0.0000000000000D+00  0.0000000000000D+00
   253  2.5200000000000D+00  0.0000000000000D+00  0.0000000000000D+00
   254  2.5300000000000D+00  0.0000000000000D+00  0.0000000000000D+00
   255  2.5400000000000D+00  0.0000000000000D+00  0.0000000000000D+00
   256  2.5500000000000D+00  0.0000000000000D+00  0.0000000000000D+00
   257  2.5600000000000D+00  0.0000000000000D+00  0.0000000000000D+00
   258  2.5700000000000D+00  0.0000000000000D+00  0.0000000000000D+00
   259  2.5800000000000D+00  0.0000000000000D+00  0.0000000000000D+00
   260  2.5900000000000D+00  0.0000000000000D+00  0.0000000000000D+00
   261  2.6000000000000D+00  0.0000000000000D+00  0.0000000000000D+00
   262  2.6100000000000D+00  0.0000000000000D+00  0.0000000000000D+00
   263  2.6200000000000D+00  0.0000000000000D+00  0.0000000000000D+00
   264  2.6300000000000D+00  0.0000000000000D+00  0.0000000000000D+00
   265  2.6400000000000D+00  0.0000000000000D+00  0.0000000000000D+00
   266  2.6500000000000D+00  0.0000000000000D+00  0.0000000000000D+00
   267  2.6600000000000D+00  0.0000000000000D+00  0.0000000000000D+00
   268  2.6700000000000D+00  0.0000000000000D+00  0.0000000000000D+00
   269  2.6800000000000D+00  0.0000000000000D+00  0.0000000000000D+00
   270  2.6900000000000D+00  0.0000000000000D+00  0.0000000000000D+00
   271  2.7000000000000D+00  0.0000000000000D+00  0.0000000000000D+00
   272  2.7100000000000D+00  0.0000000000000D+00  0.0000000000000D+00
   273  2.7200000000000D+00  0.0000000000000D+00  0.0000000000000D+00
   274  2.7300000000000D+00  0.0000000000000D+00  0.0000000000000D+00
   275  2.7400000000000D+00  0.0000000000000D+00  0.0000000000000D+00
   276  2.7500000000000D+00  0.0000000000000D+00  0.0000000000000D+00
   277  2.7600000000000D+00  0.0000000000000D+00  0.0000000000000D+00
   278  2.7700000000000D+00  0.0000000000000D+00  0.0000000000000D+00
   279  2.7800000000000D+00  0.0000000000000D+00  0.0000000000000D+00
   280  2.7900000000000D+00  0.0000000000000D+00  0.0000000000000D+00
   281  2.8000000000000D+00  0.0000000000000D+00  0.0000000000000D+00
   282  2.8100000000000D+00  0.0000000000000D+00  0.0000000000000D+00
   283  2.8200000000000D+00  0.0000000000000D+00  0.0000000000000D+00
   284  2.8300000000000D+00  0.0000000000000D+00  0.0000000000000D+00
   285  2.8400000000000D+00  0.0000000000000D+00  0.0000000000000D+00
   286  2.8500000000000D+00  0.0000000000000D+00  0.0000000000000D+00
   287  2.8600000000000D+00  0.0000000000000D+00  0.0000000000000D+00
   288  2.8700000000000D+00  0.0000000000000D+00  0.0000000000000D+00
   289  2.8800000000000D+00  0.0000000000000D+00  0.0000000000000D+00
   290  2.8900000000000D+00  0.0000000000000D+00  0.0000000000000D+00
   291  2.9000000000000D+00  0.0000000000000D+00  0.0000000000000D+00
   292  2.9100000000000D+00  0.0000000000000D+00  0.0000000000000D+00
   293  2.9200000000000D+00  0.0000000000000D+00  0.0000000000000D+00
   294  2.9300000000000D+00  0.0000000000000D+00  0.0000000000000D+00
   295  2.9400000000000D+00  0.0000000000000D+00  0.0000000000000D+00
   296  2.9500000000000D+00  0.0000000000000D+00  0.0000000000000D+00
   297  2.9600000000000D+00  0.0000000000000D+00  0.0000000000000D+00
   298  2.9700000000000D+00  0.0000000000000D+00  0.0000000000000D+00
   299  2.9800000000000D+00  0.0000000000000D+00  0.0000000000000D+00
   300  2.9900000000000D+00  0.0000000000000D+00  0.0000000000000D+00
   301  3.0000000000000D+00  0.0000000000000D+00  0.0000000000000D+00
   302  3.0100000000000D+00  0.0000000000000D+00  0.0000000000000D+00
   303  3.0200000000000D+00  0.0000000000000D+00  0.0000000000000D+00
   304  3.0300000000000D+00  0.0000000000000D+00  0.0000000000000D+00
   305  3.0400000000000D+00  0.0000000000000D+00  0.0000000000000D+00
   306  3.0500000000000D+00  0.0000000000000D+00  0.0000000000000D+00
   307  3.0600000000000D+00  0.0000000000000D+00  0.0000000000000D+00
   308  3.0700000000000D+00  0.0000000000000D+00  0.0000000000000D+00
   309  3.0800000000000D+00  0.0000000000000D+00  0.0000000000000D+00
   310  3.0900000000000D+00  0.0000000000000D+00  0.0000000000000D+00
   311  3.1000000000000D+00  0.0000000000000D+00  0.0000000000000D+00
   312  3.1100000000000D+00  0.0000000000000D+00  0.0000000000000D+00
   313  3.1200000000000D+00  0.0000000000000D+00  0.0000000000000D+00
   314  3.1300000000000D+00  0.0000000000000D+00  0.0000000000000D+00
   315  3.1400000000000D+00  0.0000000000000D+00  0.0000000000000D+00
   316  3.1500000000000D+00  0.0000000000000D+00  0.0000000000000D+00
   317  3.1600000000000D+00  0.0000000000000D+00  0.0000000000000D+00
   318  3.1700000000000D+00  0.0000000000000D+00  0.0000000000000D+00
   319  3.1800000000000D+00  0.0000000000000D+00  0.0000000000000D+00
   320  3.1900000000000D+00  0.0000000000000D+00  0.0000000000000D+00
   321  3.2000000000000D+00  0.0000000000000D+00  0.0000000000000D+00
   322  3.2100000000000D+00  0.0000000000000D+00  0.0000000000000D+00
   323  3.2200000000000D+00  0.0000000000000D+00  0.0000000000000D+00
   324  3.2300000000000D+00  0.0000000000000D+00  0.0000000000000D+00
   325  3.2400000000000D+00  0.0000000000000D+00  0.0000000000000D+00
   326  3.2500000000000D+00  0.0000000000000D+00  0.0000000000000D+00
   327  3.2600000000000D+00  0.0000000000000D+00  0.0000000000000D+00
   328  3.2700000000000D+00  0.0000000000000D+00  0.0000000000000D+00
   329  3.2800000000000D+00  0.0000000000000D+00  0.0000000000000D+00
   330  3.2900000000000D+00  0.0000000000000D+00  0.0000000000000D+00
   331  3.3000000000000D+00  0.0000000000000D+00  0.0000000000000D+00
   332  3.3100000000000D+00  0.0000000000000D+00  0.0000000000000D+00
   333  3.3200000000000D+00  0.0000000000000D+00  0.0000000000000D+00
   334  3.3300000000000D+00  0.0000000000000D+00  0.0000000000000D+00
   335  3.3400000000000D+00  0.0000000000000D+00  0.0000000000000D+00
   336  3.3500000000000D+00  0.0000000000000D+00  0.0000000000000D+00
   337  3.3600000000000D+00  0.0000000000000D+00  0.0000000000000D+00
   338  3.3700000000000D+00  0.0000000000000D+00  0.0000000000000D+00
   339  3.3800000000000D+00  0.0000000000000D+00  0.0000000000000D+00
   340  3.3900000000000D+00  0.0000000000000D+00  0.0000000000000D+00
   341  3.4000000000000D+00  0.0000000000000D+00  0.0000000000000D+00
   342  3.4100000000000D+00  0.0000000000000D+00  0.0000000000000D+00
   343  3.4200000000000D+00  0.0000000000000D+00  0.0000000000000D+00
   344  3.4300000000000D+00  0.0000000000000D+00  0.0000000000000D+00
   345  3.4400000000000D+00  0.0000000000000D+00  0.0000000000000D+00
   346  3.4500000000000D+00  0.0000000000000D+00  0.0000000000000D+00
   347  3.4600000000000D+00  0.0000000000000D+00  0.0000000000000D+00
   348  3.4700000000000D+00  0.0000000000000D+00  0.0000000000000D+00
   349  3.4800000000000D+00  0.0000000000000D+00  0.0000000000000D+00
   350  3.4900000000000D+00  0.0000000000000D+00  0.0000000000000D+00
   351  3.5000000000000D+00  0.0000000000000D+00  0.0000000000000D+00
   352  3.5100000000000D+00  0.0000000000000D+00  0.0000000000000D+00
   353  3.5200000000000D+00  0.0000000000000D+00  0.0000000000000D+00
   354  3.5300000000000D+00  0.0000000000000D+00  0.0000000000000D+00
   355  3.5400000000000D+00  0.0000000000000D+00  0.0000000000000D+00
   356  3.5500000000000D+00  0.0000000000000D+00  0.0000000000000D+00
   357  3.5600000000000D+00  0.0000000000000D+00  0.0000000000000D+00
   358  3.5700000000000D+00  0.0000000000000D+00  0.0000000000000D+00
   359  3.5800000000000D+00  0.0000000000000D+00  0.0000000000000D+00
   360  3.5900000000000D+00  0.0000000000000D+00  0.0000000000000D+00
   361  3.6000000000000D+00  0.0000000000000D+00  0.0000000000000D+00
   362  3.6100000000000D+00  0.0000000000000D+00  0.0000000000000D+00
   363  3.6200000000000D+00  0.0000000000000D+00  0.0000000000000D+00
   364  3.6300000000000D+00  0.0000000000000D+00  0.0000000000000D+00
   365  3.6400000000000D+00  0.0000000000000D+00  0.0000000000000D+00
   366  3.6500000000000D+00  0.0000000000000D+00  0.0000000000000D+00
   367  3.6600000000000D+00  0.0000000000000D+00  0.0000000000000D+00
   368  3.6700000000000D+00  0.0000000000000D+00  0.0000000000000D+00
   369  3.6800000000000D+00  0.0000000000000D+00  0.0000000000000D+00
   370  3.6900000000000D+00  0.0000000000000D+00  0.0000000000000D+00
   371  3.7000000000000D+00  0.0000000000000D+00  0.0000000000000D+00
   372  3.7100000000000D+00  0.0000000000000D+00  0.0000000000000D+00
   373  3.7200000000000D+00  0.0000000000000D+00  0.0000000000000D+00
   374  3.7300000000000D+00  0.0000000000000D+00  0.0000000000000D+00
   375  3.7400000000000D+00  0.0000000000000D+00  0.0000000000000D+00
   376  3.7500000000000D+00  0.0000000000000D+00  0.0000000000000D+00
   377  3.7600000000000D+00  0.0000000000000D+00  0.0000000000000D+00
   378  3.7700000000000D+00  0.0000000000000D+00  0.0000000000000D+00
   379  3.7800000000000D+00  0.0000000000000D+00  0.0000000000000D+00
   380  3.7900000000000D+00  0.0000000000000D+00  0.0000000000000D+00
   381  3.8000000000000D+00  0.0000000000000D+00  0.0000000000000D+00
   382  3.8100000000000D+00  0.0000000000000D+00  0.0000000000000D+00
   383  3.8200000000000D+00  0.0000000000000D+00  0.0000000000000D+00
   384  3.8300000000000D+00  0.0000000000000D+00  0.0000000000000D+00
   385  3.8400000000000D+00  0.0000000000000D+00  0.0000000000000D+00
   386  3.8500000000000D+00  0.0000000000000D+00  0.0000000000000D+00
   387  3.8600000000000D+00  0.0000000000000D+00  0.0000000000000D+00
   388  3.8700000000000D+00  0.0000000000000D+00  0.0000000000000D+00
   389  3.8800000000000D+00  0.0000000000000D+00  0.0000000000000D+00
   390  3.8900000000000D+00  0.0000000000000D+00  0.0000000000000D+00
   391  3.9000000000000D+00  0.0000000000000D+00  0.0000000000000D+00
   392  3.9100000000000D+00  0.0000000000000D+00  0.0000000000000D+00
   393  3.9200000000000D+00  0.0000000000000D+00  0.0000000000000D+00
   394  3.9300000000000D+00  0.0000000000000D+00  0.0000000000000D+00
   395  3.9400000000000D+00  0.0000000000000D+00  0.0000000000000D+00
   396  3.9500000000000D+00  0.0000000000000D+00  0.0000000000000D+00
   397  3.9600000000000D+00  0.0000000000000D+00  0.0000000000000D+00
   398  3.9700000000000D+00  0.0000000000000D+00  0.0000000000000D+00
   399  3.9800000000000D+00  0.0000000000000D+00  0.0000000000000D+00
   400  3.9900000000000D+00  0.0000000000000D+00  0.0000000000000D+00
   1                        -6.5657688198491D+00 -2.5278580770115D+00
     1  0.0000000000000D+00  4.9560779091795D-10 -9.9311105172806D-10
     2  1.0000000000000D-02  1.9884373566049D-03 -8.7757701735573D-04
     3  2.0000000000000D-02  7.9443089982617D-03 -3.5018061734640D-03
     4  3.0000000000000D-02  1.7839339459614D-02 -7.8472452414179D-03
     5  4.0000000000000D-02  3.1626555429891D-02 -1.3871701503082D-02
     6  5.0000000000000D-02  4.9240513522947D-02 -2.1516546343998D-02
     7  6.0000000000000D-02  7.0597617309021D-02 -3.0707151917156D-02
     8  7.0000000000000D-02  9.5596521780701D-02 -4.1353446155868D-02
     9  8.0000000000000D-02  1.2411862292993D-01 -5.3350581422850D-02
    10  9.0000000000000D-02  1.5602862963679D-01 -6.6579711140630D-02
    11  1.0000000000000D-01  1.9117521461805D-01 -8.0908867867380D-02
    12  1.1000000000000D-01  2.2939174075708D-01 -9.6193935471429D-02
    13  1.2000000000000D-01  2.7049705874138D-01 -1.1227970732558D-01
    14  1.3000000000000D-01  3.1429637157017D-01 -1.2900102179568D-01
    15  1.4000000000000D-01  3.6058216116742D-01 -1.4618396574370D-01
    16  1.5000000000000D-01  4.0913517204491D-01 -1.6364713630767D-01
    17  1.6000000000000D-01  4.5972544670857D-01 -1.8120295086468D-01
    18  1.7000000000000D-01  5.1211340729034D-01 -1.9865899482890D-01
    19  1.8000000000000D-01  5.6605097771663D-01 -2.1581939678828D-01
    20  1.9000000000000D-01  6.2128274059537D-01 -2.3248622043832D-01
    21  2.0000000000000D-01  6.7754712291404D-01 -2.4846086282954D-01
    22  2.1000000000000D-01  7.3457760459240D-01 -2.6354544860362D-01