Mg    ONCVPSP-3.3.0  r_core=   2.31813   2.10714
     12.0000      2.0000      220408    zatom,zion,pspd
     8       2   1     4   400     0    pspcod,pspxc,lmax,lloc,mmax,r2well
  3.99000000  0.00000000  0.00000000    rchrg fchrg qchrg
     2     2     0     0     0    nproj
     1     1           extension_switch
   0                         6.2383255066445D+00  6.8826211396675D-01
     1  0.0000000000000D+00 -1.8618911967749D-11  5.5011061678156D-11
     2  1.0000000000000D-02  2.6254848695476D-02 -1.8016109885499D-03
     3  2.0000000000000D-02  5.2494833333994D-02 -3.5923753679968D-03
     4  3.0000000000000D-02  7.8705141801621D-02 -5.3616062802507D-03
     5  4.0000000000000D-02  1.0487106534644D-01 -7.0989347251902D-03
     6  5.0000000000000D-02  1.3097804895420D-01 -8.7944643935172D-03
     7  6.0000000000000D-02  1.5701174017089D-01 -1.0438921623426D-02
     8  7.0000000000000D-02  1.8295803587631D-01 -1.2023798920602D-02
     9  8.0000000000000D-02  2.0880312653175D-01 -1.3541490536092D-02
    10  9.0000000000000D-02  2.3453353744734D-01 -1.4985418664442D-02
    11  1.0000000000000D-01  2.6013616664230D-01 -1.6350148904849D-02
    12  1.1000000000000D-01  2.8559831890199D-01 -1.7631493720045D-02
    13  1.2000000000000D-01  3.1090773567070D-01 -1.8826602730677D-02
    14  1.3000000000000D-01  3.3605262045736D-01 -1.9934038796175D-02
    15  1.4000000000000D-01  3.6102165947239D-01 -2.0953838955524D-02
    16  1.5000000000000D-01  3.8580403725848D-01 -2.1887559432208D-02
    17  1.6000000000000D-01  4.1038944712389D-01 -2.2738304045483D-02
    18  1.7000000000000D-01  4.3476809623613D-01 -2.3510735514422D-02
    19  1.8000000000000D-01  4.5893070528326D-01 -2.4211069290164D-02
    20  1.9000000000000D-01  4.8286850266176D-01 -2.4847049704740D-02
    21  2.0000000000000D-01  5.0657321320188D-01 -2.5427908380234D-02
    22  2.1000000000000D-01  5.3003704149370D-01 -2.5964304998755D-02
    23  2.2000000000000D-01  5.5325264992930D-01 -2.6468250690283D-02
    24  2.3000000000000D-01  5.7621313162840D-01 -2.6953014450968D-02
    25  2.4000000000000D-01  5.9891197846514D-01 -2.7433013157192D-02
    26  2.5000000000000D-01  6.2134304446330D-01 -2.7923685889773D-02
    27  2.6000000000000D-01  6.4350050487416D-01 -2.8441353426748D-02
    28  2.7000000000000D-01  6.6537881129682D-01 -2.9003063900795D-02
    29  2.8000000000000D-01  6.8697264324263D-01 -2.9626425747888D-02
    30  2.9000000000000D-01  7.0827685658517D-01 -3.0329429195552D-02
    31  3.0000000000000D-01  7.2928642937268D-01 -3.1130257651570D-02
    32  3.1000000000000D-01  7.4999640551233D-01 -3.2047090455891D-02
    33  3.2000000000000D-01  7.7040183686351D-01 -3.3097898549076D-02
    34  3.3000000000000D-01  7.9049772430099D-01 -3.4300234689097D-02
    35  3.4000000000000D-01  8.1027895832809D-01 -3.5671019913850D-02
    36  3.5000000000000D-01  8.2974025983404D-01 -3.7226327999017D-02
    37  3.6000000000000D-01  8.4887612159909D-01 -3.8981169699042D-02
    38  3.7000000000000D-01  8.6768075115518D-01 -4.0949278583060D-02
    39  3.8000000000000D-01  8.8614801560861D-01 -4.3142900286810D-02
    40  3.9000000000000D-01  9.0427138902532D-01 -4.5572586996271D-02
    41  4.0000000000000D-01  9.2204390296721D-01 -4.8246998958576D-02
    42  4.1000000000000D-01  9.3945810075143D-01 -5.1172714780886D-02
    43  4.2000000000000D-01  9.5650599598241D-01 -5.4354052228463D-02
    44  4.3000000000000D-01  9.7317903587915D-01 -5.7792901169938D-02
    45  4.4000000000000D-01  9.8946806988823D-01 -6.1488570240151D-02
    46  4.5000000000000D-01  1.0053633240363D+00 -6.5437648700854D-02
    47  4.6000000000000D-01  1.0208543814347D+00 -6.9633884876567D-02
    48  4.7000000000000D-01  1.0359301693022D+00 -7.4068082428170D-02
    49  4.8000000000000D-01  1.0505789528246D+00 -7.8728015601525D-02
    50  4.9000000000000D-01  1.0647883361147D+00 -8.3598364452989D-02
    51  5.0000000000000D-01  1.0785452704810D+00 -8.8660670909674D-02
    52  5.1000000000000D-01  1.0918360701549D+00 -9.3893316370533D-02
    53  5.2000000000000D-01  1.1046464355645D+00 -9.9271521396261D-02
    54  5.3000000000000D-01  1.1169614841791D+00 -1.0476736787274D-01
    55  5.4000000000000D-01  1.1287657888861D+00 -1.1034984386579D-01
    56  5.5000000000000D-01  1.1400434237938D+00 -1.1598491121565D-01
    57  5.6000000000000D-01  1.1507780172912D+00 -1.2163559574946D-01
    58  5.7000000000000D-01  1.1609528121262D+00 -1.2726209982004D-01
    59  5.8000000000000D-01  1.1705507322038D+00 -1.3282193671209D-01
    60  5.9000000000000D-01  1.1795544557363D+00 -1.3827008629236D-01
    61  6.0000000000000D-01  1.1879464943212D+00 -1.4355917112151D-01
    62  6.1000000000000D-01  1.1957092774603D+00 -1.4863965209270D-01
    63  6.2000000000000D-01  1.2028252419756D+00 -1.5346004251719D-01
    64  6.3000000000000D-01  1.2092769257282D+00 -1.5796713944186D-01
    65  6.4000000000000D-01  1.2150470649932D+00 -1.6210627085888D-01
    66  6.5000000000000D-01  1.2201186948009D+00 -1.6582155735470D-01
    67  6.6000000000000D-01  1.2244752515137D+00 -1.6905618664625D-01
    68  6.7000000000000D-01  1.2281006768728D+00 -1.7175269936657D-01
    69  6.8000000000000D-01  1.2309795227211D+00 -1.7385328439180D-01
    70  6.9000000000000D-01  1.2330970555835D+00 -1.7530008194827D-01
    71  7.0000000000000D-01  1.2344393602700D+00 -1.7603549270080D-01
    72  7.1000000000000D-01  1.2349934416571D+00 -1.7600249100489D-01
    73  7.2000000000000D-01  1.2347473237997D+00 -1.7514494050445D-01
    74  7.3000000000000D-01  1.2336901455281D+00 -1.7340791027485D-01
    75  7.4000000000000D-01  1.2318122516983D+00 -1.7073798974840D-01
    76  7.5000000000000D-01  1.2291052792794D+00 -1.6708360071543D-01
    77  7.6000000000000D-01  1.2255622374908D+00 -1.6239530477028D-01
    78  7.7000000000000D-01  1.2211775812327D+00 -1.5662610466595D-01
    79  7.8000000000000D-01  1.2159472770952D+00 -1.4973173815535D-01
    80  7.9000000000000D-01  1.2098688612792D+00 -1.4167096302893D-01
    81  8.0000000000000D-01  1.2029414888187D+00 -1.3240583220883D-01
    82  8.1000000000000D-01  1.1951659735517D+00 -1.2190195792690D-01
    83  8.2000000000000D-01  1.1865448183622D+00 -1.1012876419756D-01
    84  8.3000000000000D-01  1.1770822352848D+00 -9.7059726995440D-02
    85  8.4000000000000D-01  1.1667841551480D+00 -8.2672601760879D-02
    86  8.5000000000000D-01  1.1556582265169D+00 -6.6949638082259D-02
    87  8.6000000000000D-01  1.1437138037897D+00 -4.9877781641935D-02
    88  8.7000000000000D-01  1.1309619243952D+00 -3.1448863759901D-02
    89  8.8000000000000D-01  1.1174152751440D+00 -1.1659779125397D-02
    90  8.9000000000000D-01  1.1030881478835D+00  9.4873474306438D-03
    91  9.0000000000000D-01  1.0879963847196D+00  3.1985004001810D-02
    92  9.1000000000000D-01  1.0721573131719D+00  5.5820143120001D-02
    93  9.2000000000000D-01  1.0555896717434D+00  8.0974040053967D-02
    94  9.3000000000000D-01  1.0383135264931D+00  1.0742215595885D-01
    95  9.4000000000000D-01  1.0203501793151D+00  1.3513400367512D-01
    96  9.5000000000000D-01  1.0017220687350D+00  1.6407301371228D-01
    97  9.6000000000000D-01  9.8245266414512D-01  1.9419639769666D-01
    98  9.7000000000000D-01  9.6256635450746D-01  2.2545500631597D-01
    99  9.8000000000000D-01  9.4208833249865D-01  2.5779317809563D-01
   100  9.9000000000000D-01  9.2104447502493D-01  2.9114857428393D-01
   101  1.0000000000000D+00  8.9946123563691D-01  3.2545204032319D-01
   102  1.0100000000000D+00  8.7736546701681D-01  3.6062724118247D-01
   103  1.0200000000000D+00  8.5478465912182D-01  3.9659148447507D-01
   104  1.0300000000000D+00  8.3174749016024D-01  4.3325762358447D-01
   105  1.0400000000000D+00  8.0828415879784D-01  4.7053559350227D-01
   106  1.0500000000000D+00  7.8442637743841D-01  5.0833317298603D-01
   107  1.0600000000000D+00  7.6020619483322D-01  5.4655265521234D-01
   108  1.0700000000000D+00  7.3566000234139D-01  5.8510544194423D-01
   109  1.0800000000000D+00  7.1082540378028D-01  6.2390241959077D-01
   110  1.0900000000000D+00  6.8573452387904D-01  6.6283184694416D-01
   111  1.1000000000000D+00  6.6042308703485D-01  7.0178999657604D-01
   112  1.1100000000000D+00  6.3492840686041D-01  7.4067576892200D-01
   113  1.1200000000000D+00  6.0928837493107D-01  7.7938821028986D-01
   114  1.1300000000000D+00  5.8354121259194D-01  8.1782634325441D-01
   115  1.1400000000000D+00  5.5772545083244D-01  8.5588990614894D-01
   116  1.1500000000000D+00  5.3187977230228D-01  8.9347958324315D-01
   117  1.1600000000000D+00  5.0604289284339D-01  9.3049736162055D-01
   118  1.1700000000000D+00  4.8025344070774D-01  9.6684686752922D-01
   119  1.1800000000000D+00  4.5454983764655D-01  1.0024336940009D+00
   120  1.1900000000000D+00  4.2897018222968D-01  1.0371657186569D+00
   121  1.2000000000000D+00  4.0355213574147D-01  1.0709534106733D+00
   122  1.2100000000000D+00  3.7833281098962D-01  1.1037101259132D+00
   123  1.2200000000000D+00  3.5334866435527D-01  1.1353523892682D+00
   124  1.2300000000000D+00  3.2863539139738D-01  1.1658001633100D+00
   125  1.2400000000000D+00  3.0422782630917D-01  1.1949771024097D+00
   126  1.2500000000000D+00  2.8015984551327D-01  1.2228107915248D+00
   127  1.2600000000000D+00  2.5646427566831D-01  1.2492329689047D+00
   128  1.2700000000000D+00  2.3317280633492D-01  1.2741797320585D+00
   129  1.2800000000000D+00  2.1031590753847D-01  1.2975917263644D+00
   130  1.2900000000000D+00  1.8792275245285D-01  1.3194143157496D+00
   131  1.3000000000000D+00  1.6602114539399D-01  1.3395977349962D+00
   132  1.3100000000000D+00  1.4463745530723D-01  1.3580972232442D+00
   133  1.3200000000000D+00  1.2379655491461D-01  1.3748731383276D+00
   134  1.3300000000000D+00  1.0352176564475D-01  1.3898910517298D+00
   135  1.3400000000000D+00  8.3834808476348D-02  1.4031218239162D+00
   136  1.3500000000000D+00  6.4755760790757D-02  1.4145416599255D+00
   137  1.3600000000000D+00  4.6303019288317D-02  1.4241321452378D+00
   138  1.3700000000000D+00  2.8493269050034D-02  1.4318802618479D+00
   139  1.3800000000000D+00  1.1341458749663D-02  1.4377783847314D+00
   140  1.3900000000000D+00 -5.1392179765863D-03  1.4418242588771D+00
   141  1.4000000000000D+00 -2.0937334993357D-02  1.4440209570604D+00
   142  1.4100000000000D+00 -3.6043240041766D-02  1.4443768188161D+00
   143  1.4200000000000D+00 -5.0449055049423D-02  1.4429053708836D+00
   144  1.4300000000000D+00 -6.4148670477299D-02  1.4396252296592D+00
   145  1.4400000000000D+00 -7.7137733817328D-02  1.4345599862181D+00
   146  1.4500000000000D+00 -8.9413632327314D-02  1.4277380743908D+00
   147  1.4600000000000D+00 -1.0097547020610D-01  1.4191926227301D+00
   148  1.4700000000000D+00 -1.1182404031574D-01  1.4089612909152D+00
   149  1.4800000000000D+00 -1.2196179068085D-01  1.3970860915075D+00
   150  1.4900000000000D+00 -1.3139278594804D-01  1.3836131978289D+00
   151  1.5000000000000D+00 -1.4012266401735D-01  1.3685927388245D+00
   152  1.5100000000000D+00 -1.4815858811858D-01  1.3520785819277D+00
   153  1.5200000000000D+00 -1.5550919452776D-01  1.3341281047500D+00
   154  1.5300000000000D+00 -1.6218453625722D-01  1.3148019567646D+00
   155  1.5400000000000D+00 -1.6819602293222D-01  1.2941638118587D+00
   156  1.5500000000000D+00 -1.7355635720037D-01  1.2722801129451D+00
   157  1.5600000000000D+00 -1.7827946793336D-01  1.2492198096211D+00
   158  1.5700000000000D+00 -1.8238044055634D-01  1.2250540900359D+00
   159  1.5800000000000D+00 -1.8587544480743D-01  1.1998561080360D+00
   160  1.5900000000000D+00 -1.8878166025540D-01  1.1737007067399D+00
   161  1.6000000000000D+00 -1.9111719989979D-01  1.1466641396225D+00
   162  1.6100000000000D+00 -1.9290103218578D-01  1.1188237902877D+00
   163  1.6200000000000D+00 -1.9415290175583D-01  1.0902578919431D+00
   164  1.6300000000000D+00 -1.9489324928627D-01  1.0610452478182D+00
   165  1.6400000000000D+00 -1.9514313070586D-01  1.0312649534075D+00
   166  1.6500000000000D+00 -1.9492413617035D-01  1.0009961218666D+00
   167  1.6600000000000D+00 -1.9425830904519D-01  9.7031761325774D-01
   168  1.6700000000000D+00 -1.9316806530242D-01  9.3930776907117D-01
   169  1.6800000000000D+00 -1.9167611352510D-01  9.0804415250044D-01
   170  1.6900000000000D+00 -1.8980537595755D-01  8.7660329598854D-01
   171  1.7000000000000D+00 -1.8757891072828D-01  8.4506045629117D-01
   172  1.7100000000000D+00 -1.8501983571367D-01  8.1348937865323D-01
   173  1.7200000000000D+00 -1.8215125409491D-01  7.8196207009216D-01
   174  1.7300000000000D+00 -1.7899618210608D-01  7.5054858346066D-01
   175  1.7400000000000D+00 -1.7557747894832D-01  7.1931681202628D-01
   176  1.7500000000000D+00 -1.7191777938487D-01  6.8833229627636D-01
   177  1.7600000000000D+00 -1.6803942892982D-01  6.5765804248354D-01
   178  1.7700000000000D+00 -1.6396442213485D-01  6.2735435467911D-01
   179  1.7800000000000D+00 -1.5971434385050D-01  5.9747867946026D-01
   180  1.7900000000000D+00 -1.5531031392194D-01  5.6808546510875D-01
   181  1.8000000000000D+00 -1.5077293519432D-01  5.3922603445260D-01
   182  1.8100000000000D+00 -1.4612224519922D-01  5.1094847263019D-01
   183  1.8200000000000D+00 -1.4137767144278D-01  4.8329752935365D-01
   184  1.8300000000000D+00 -1.3655799052470D-01  4.5631453633404D-01
   185  1.8400000000000D+00 -1.3168129111009D-01  4.3003733981690D-01
   186  1.8500000000000D+00 -1.2676494078232D-01  4.0450024819742D-01
   187  1.8600000000000D+00 -1.2182555695771D-01  3.7973399521036D-01
   188  1.8700000000000D+00 -1.1687898163601D-01  3.5576571778979D-01
   189  1.8800000000000D+00 -1.1194026036910D-01  3.3261894978650D-01
   190  1.8900000000000D+00 -1.0702362495342D-01  3.1031362971557D-01
   191  1.9000000000000D+00 -1.0214248037755D-01  2.8886612423415D-01
   192  1.9100000000000D+00 -9.7309395438035D-02  2.6828926520395D-01
   193  1.9200000000000D+00 -9.2536097414619D-02  2.4859240155608D-01
   194  1.9300000000000D+00 -8.7833470432457D-02  2.2978146455110D-01
   195  1.9400000000000D+00 -8.3211557547051D-02  2.1185904642915D-01
   196  1.9500000000000D+00 -7.8679566510470D-02  1.9482449218042D-01
   197  1.9600000000000D+00 -7.4245878855226D-02  1.7867400306112D-01
   198  1.9700000000000D+00 -6.9918062563275D-02  1.6340075264131D-01
   199  1.9800000000000D+00 -6.5702887697303D-02  1.4899501312754D-01
   200  1.9900000000000D+00 -6.1606345301325D-02  1.3544429287441D-01
   201  2.0000000000000D+00 -5.7633669053269D-02  1.2273348319612D-01
   202  2.0100000000000D+00 -5.3789359662897D-02  1.1084501431871D-01
   203  2.0200000000000D+00 -5.0077211855884D-02  9.9759019799384D-02
   204  2.0300000000000D+00 -4.6500343544705D-02  8.9453507936715D-02
   205  2.0400000000000D+00 -4.3061227294200D-02  7.9904540376392D-02
   206  2.0500000000000D+00 -3.9761723551586D-02  7.1086416024687D-02
   207  2.0600000000000D+00 -3.6603115655979D-02  6.2971860144063D-02
   208  2.0700000000000D+00 -3.3586146302968D-02  5.5532217430168D-02
   209  2.0800000000000D+00 -3.0711055222986D-02  4.8737648130195D-02
   210  2.0900000000000D+00 -2.7977617922632D-02  4.2557326507441D-02
   211  2.1000000000000D+00 -2.5385185183421D-02  3.6959640592583D-02
   212  2.1100000000000D+00 -2.2932723109632D-02  3.1912392271584D-02
   213  2.1200000000000D+00 -2.0618853508345D-02  2.7382996944521D-02
   214  2.1300000000000D+00 -1.8441894369525D-02  2.3338681839025D-02
   215  2.1400000000000D+00 -1.6399900133186D-02  1.9746681707821D-02
   216  2.1500000000000D+00 -1.4490701714135D-02  1.6574431877856D-02
   217  2.1600000000000D+00 -1.2711945797078D-02  1.3789756685628D-02
   218  2.1700000000000D+00 -1.1061133373143D-02  1.1361053227526D-02
   219  2.1800000000000D+00 -9.5356573548706D-03  9.2574697961878D-03
   220  2.1900000000000D+00 -8.1328387112588D-03  7.4490768121552D-03
   221  2.2000000000000D+00 -6.8499614694025D-03  5.9070316262288D-03
   222  2.2100000000000D+00 -5.6843059072748D-03  4.6037345625139D-03
   223  2.2200000000000D+00 -4.6331798714270D-03  3.5129759529606D-03
   224  2.2300000000000D+00 -3.6939485300871D-03  2.6100753579166D-03
   225  2.2400000000000D+00 -2.8642540595819D-03  1.8719674231628D-03
   226  2.2500000000000D+00 -2.1416210677563D-03  1.2774096147929D-03
   227  2.2600000000000D+00 -1.5229407036446D-03  8.0720424036825D-04
   228  2.2700000000000D+00 -1.0050848362950D-03  4.4524453702147D-04
   229  2.2800000000000D+00 -5.8850587140818D-04  1.7407963128863D-04
   230  2.2900000000000D+00 -2.7410330706468D-04 -2.1607987797664D-05
   231  2.3000000000000D+00 -5.9292092789931D-05 -1.5936145137466D-04
   232  2.3100000000000D+00  6.2161564851746D-05 -2.2880658118812D-04
   233  2.3200000000000D+00  1.0172310905215D-04 -2.2376511791524D-04
   234  2.3300000000000D+00  7.6857577597836D-05 -1.4558345104414D-04
   235  2.3400000000000D+00  2.7605054096772D-05 -4.8997956162438D-05
   236  2.3500000000000D+00 -9.1965494298265D-06  1.5962893066413D-05
   237  2.3600000000000D+00 -1.5910510309857D-05  2.6910977598454D-05
   238  2.3700000000000D+00 -5.9666540548653D-06  9.9137994977257D-06
   239  2.3800000000000D+00  2.3465393744378D-06 -4.2349862299915D-06
   240  2.3900000000000D+00  3.2829166096383D-06 -5.8667933152932D-06
   241  2.4000000000000D+00  8.7746038893949D-07 -1.5555919469284D-06
   242  2.4100000000000D+00 -2.2279214446321D-07  5.1443858632328D-07
   243  2.4200000000000D+00 -2.6338183727811D-07  6.0816228668672D-07
   244  2.4300000000000D+00 -4.1492640695013D-08  9.5808653726961D-08
   245  2.4400000000000D+00  0.0000000000000D+00  0.0000000000000D+00
   246  2.4500000000000D+00  0.0000000000000D+00  0.0000000000000D+00
   247  2.4600000000000D+00  0.0000000000000D+00  0.0000000000000D+00
   248  2.4700000000000D+00  0.0000000000000D+00  0.0000000000000D+00
   249  2.4800000000000D+00  0.0000000000000D+00  0.0000000000000D+00
   250  2.4900000000000D+00  0.0000000000000D+00  0.0000000000000D+00
   251  2.5000000000000D+00  0.0000000000000D+00  0.0000000000000D+00
   252  2.5100000000000D+00  0.0000000000000D+00  0.0000000000000D+00
   253  2.5200000000000D+00  0.0000000000000D+00  0.0000000000000D+00
   254  2.5300000000000D+00  0.0000000000000D+00  0.0000000000000D+00
   255  2.5400000000000D+00  0.0000000000000D+00  0.0000000000000D+00
   256  2.5500000000000D+00  0.0000000000000D+00  0.0000000000000D+00
   257  2.5600000000000D+00  0.0000000000000D+00  0.0000000000000D+00
   258  2.5700000000000D+00  0.0000000000000D+00  0.0000000000000D+00
   259  2.5800000000000D+00  0.0000000000000D+00  0.0000000000000D+00
   260  2.5900000000000D+00  0.0000000000000D+00  0.0000000000000D+00
   261  2.6000000000000D+00  0.0000000000000D+00  0.0000000000000D+00
   262  2.6100000000000D+00  0.0000000000000D+00  0.0000000000000D+00
   263  2.6200000000000D+00  0.0000000000000D+00  0.0000000000000D+00
   264  2.6300000000000D+00  0.0000000000000D+00  0.0000000000000D+00
   265  2.6400000000000D+00  0.0000000000000D+00  0.0000000000000D+00
   266  2.6500000000000D+00  0.0000000000000D+00  0.0000000000000D+00
   267  2.6600000000000D+00  0.0000000000000D+00  0.0000000000000D+00
   268  2.6700000000000D+00  0.0000000000000D+00  0.0000000000000D+00
   269  2.6800000000000D+00  0.0000000000000D+00  0.0000000000000D+00
   270  2.6900000000000D+00  0.0000000000000D+00  0.0000000000000D+00
   271  2.7000000000000D+00  0.0000000000000D+00  0.0000000000000D+00
   272  2.7100000000000D+00  0.0000000000000D+00  0.0000000000000D+00
   273  2.7200000000000D+00  0.0000000000000D+00  0.0000000000000D+00
   274  2.7300000000000D+00  0.0000000000000D+00  0.0000000000000D+00
   275  2.7400000000000D+00  0.0000000000000D+00  0.0000000000000D+00
   276  2.7500000000000D+00  0.0000000000000D+00  0.0000000000000D+00
   277  2.7600000000000D+00  0.0000000000000D+00  0.0000000000000D+00
   278  2.7700000000000D+00  0.0000000000000D+00  0.0000000000000D+00
   279  2.7800000000000D+00  0.0000000000000D+00  0.0000000000000D+00
   280  2.7900000000000D+00  0.0000000000000D+00  0.0000000000000D+00
   281  2.8000000000000D+00  0.0000000000000D+00  0.0000000000000D+00
   282  2.8100000000000D+00  0.0000000000000D+00  0.0000000000000D+00
   283  2.8200000000000D+00  0.0000000000000D+00  0.0000000000000D+00
   284  2.8300000000000D+00  0.0000000000000D+00  0.0000000000000D+00
   285  2.8400000000000D+00  0.0000000000000D+00  0.0000000000000D+00
   286  2.8500000000000D+00  0.0000000000000D+00  0.0000000000000D+00
   287  2.8600000000000D+00  0.0000000000000D+00  0.0000000000000D+00
   288  2.8700000000000D+00  0.0000000000000D+00  0.0000000000000D+00
   289  2.8800000000000D+00  0.0000000000000D+00  0.0000000000000D+00
   290  2.8900000000000D+00  0.0000000000000D+00  0.0000000000000D+00
   291  2.9000000000000D+00  0.0000000000000D+00  0.0000000000000D+00
   292  2.9100000000000D+00  0.0000000000000D+00  0.0000000000000D+00
   293  2.9200000000000D+00  0.0000000000000D+00  0.0000000000000D+00
   294  2.9300000000000D+00  0.0000000000000D+00  0.0000000000000D+00
   295  2.9400000000000D+00  0.0000000000000D+00  0.0000000000000D+00
   296  2.9500000000000D+00  0.0000000000000D+00  0.0000000000000D+00
   297  2.9600000000000D+00  0.0000000000000D+00  0.0000000000000D+00
   298  2.9700000000000D+00  0.0000000000000D+00  0.0000000000000D+00
   299  2.9800000000000D+00  0.0000000000000D+00  0.0000000000000D+00
   300  2.9900000000000D+00  0.0000000000000D+00  0.0000000000000D+00
   301  3.0000000000000D+00  0.0000000000000D+00  0.0000000000000D+00
   302  3.0100000000000D+00  0.0000000000000D+00  0.0000000000000D+00
   303  3.0200000000000D+00  0.0000000000000D+00  0.0000000000000D+00
   304  3.0300000000000D+00  0.0000000000000D+00  0.0000000000000D+00
   305  3.0400000000000D+00  0.0000000000000D+00  0.0000000000000D+00
   306  3.0500000000000D+00  0.0000000000000D+00  0.0000000000000D+00
   307  3.0600000000000D+00  0.0000000000000D+00  0.0000000000000D+00
   308  3.0700000000000D+00  0.0000000000000D+00  0.0000000000000D+00
   309  3.0800000000000D+00  0.0000000000000D+00  0.0000000000000D+00
   310  3.0900000000000D+00  0.0000000000000D+00  0.0000000000000D+00
   311  3.1000000000000D+00  0.0000000000000D+00  0.0000000000000D+00
   312  3.1100000000000D+00  0.0000000000000D+00  0.0000000000000D+00
   313  3.1200000000000D+00  0.0000000000000D+00  0.0000000000000D+00
   314  3.1300000000000D+00  0.0000000000000D+00  0.0000000000000D+00
   315  3.1400000000000D+00  0.0000000000000D+00  0.0000000000000D+00
   316  3.1500000000000D+00  0.0000000000000D+00  0.0000000000000D+00
   317  3.1600000000000D+00  0.0000000000000D+00  0.0000000000000D+00
   318  3.1700000000000D+00  0.0000000000000D+00  0.0000000000000D+00
   319  3.1800000000000D+00  0.0000000000000D+00  0.0000000000000D+00
   320  3.1900000000000D+00  0.0000000000000D+00  0.0000000000000D+00
   321  3.2000000000000D+00  0.0000000000000D+00  0.0000000000000D+00
   322  3.2100000000000D+00  0.0000000000000D+00  0.0000000000000D+00
   323  3.2200000000000D+00  0.0000000000000D+00  0.0000000000000D+00
   324  3.2300000000000D+00  0.0000000000000D+00  0.0000000000000D+00
   325  3.2400000000000D+00  0.0000000000000D+00  0.0000000000000D+00
   326  3.2500000000000D+00  0.0000000000000D+00  0.0000000000000D+00
   327  3.2600000000000D+00  0.0000000000000D+00  0.0000000000000D+00
   328  3.2700000000000D+00  0.0000000000000D+00  0.0000000000000D+00
   329  3.2800000000000D+00  0.0000000000000D+00  0.0000000000000D+00
   330  3.2900000000000D+00  0.0000000000000D+00  0.0000000000000D+00
   331  3.3000000000000D+00  0.0000000000000D+00  0.0000000000000D+00
   332  3.3100000000000D+00  0.0000000000000D+00  0.0000000000000D+00
   333  3.3200000000000D+00  0.0000000000000D+00  0.0000000000000D+00
   334  3.3300000000000D+00  0.0000000000000D+00  0.0000000000000D+00
   335  3.3400000000000D+00  0.0000000000000D+00  0.0000000000000D+00
   336  3.3500000000000D+00  0.0000000000000D+00  0.0000000000000D+00
   337  3.3600000000000D+00  0.0000000000000D+00  0.0000000000000D+00
   338  3.3700000000000D+00  0.0000000000000D+00  0.0000000000000D+00
   339  3.3800000000000D+00  0.0000000000000D+00  0.0000000000000D+00
   340  3.3900000000000D+00  0.0000000000000D+00  0.0000000000000D+00
   341  3.4000000000000D+00  0.0000000000000D+00  0.0000000000000D+00
   342  3.4100000000000D+00  0.0000000000000D+00  0.0000000000000D+00
   343  3.4200000000000D+00  0.0000000000000D+00  0.0000000000000D+00
   344  3.4300000000000D+00  0.0000000000000D+00  0.0000000000000D+00
   345  3.4400000000000D+00  0.0000000000000D+00  0.0000000000000D+00
   346  3.4500000000000D+00  0.0000000000000D+00  0.0000000000000D+00
   347  3.4600000000000D+00  0.0000000000000D+00  0.0000000000000D+00
   348  3.4700000000000D+00  0.0000000000000D+00  0.0000000000000D+00
   349  3.4800000000000D+00  0.0000000000000D+00  0.0000000000000D+00
   350  3.4900000000000D+00  0.0000000000000D+00  0.0000000000000D+00
   351  3.5000000000000D+00  0.0000000000000D+00  0.0000000000000D+00
   352  3.5100000000000D+00  0.0000000000000D+00  0.0000000000000D+00
   353  3.5200000000000D+00  0.0000000000000D+00  0.0000000000000D+00
   354  3.5300000000000D+00  0.0000000000000D+00  0.0000000000000D+00
   355  3.5400000000000D+00  0.0000000000000D+00  0.0000000000000D+00
   356  3.5500000000000D+00  0.0000000000000D+00  0.0000000000000D+00
   357  3.5600000000000D+00  0.0000000000000D+00  0.0000000000000D+00
   358  3.5700000000000D+00  0.0000000000000D+00  0.0000000000000D+00
   359  3.5800000000000D+00  0.0000000000000D+00  0.0000000000000D+00
   360  3.5900000000000D+00  0.0000000000000D+00  0.0000000000000D+00
   361  3.6000000000000D+00  0.0000000000000D+00  0.0000000000000D+00
   362  3.6100000000000D+00  0.0000000000000D+00  0.0000000000000D+00
   363  3.6200000000000D+00  0.0000000000000D+00  0.0000000000000D+00
   364  3.6300000000000D+00  0.0000000000000D+00  0.0000000000000D+00
   365  3.6400000000000D+00  0.0000000000000D+00  0.0000000000000D+00
   366  3.6500000000000D+00  0.0000000000000D+00  0.0000000000000D+00
   367  3.6600000000000D+00  0.0000000000000D+00  0.0000000000000D+00
   368  3.6700000000000D+00  0.0000000000000D+00  0.0000000000000D+00
   369  3.6800000000000D+00  0.0000000000000D+00  0.0000000000000D+00
   370  3.6900000000000D+00  0.0000000000000D+00  0.0000000000000D+00
   371  3.7000000000000D+00  0.0000000000000D+00  0.0000000000000D+00
   372  3.7100000000000D+00  0.0000000000000D+00  0.0000000000000D+00
   373  3.7200000000000D+00  0.0000000000000D+00  0.0000000000000D+00
   374  3.7300000000000D+00  0.0000000000000D+00  0.0000000000000D+00
   375  3.7400000000000D+00  0.0000000000000D+00  0.0000000000000D+00
   376  3.7500000000000D+00  0.0000000000000D+00  0.0000000000000D+00
   377  3.7600000000000D+00  0.0000000000000D+00  0.0000000000000D+00
   378  3.7700000000000D+00  0.0000000000000D+00  0.0000000000000D+00
   379  3.7800000000000D+00  0.0000000000000D+00  0.0000000000000D+00
   380  3.7900000000000D+00  0.0000000000000D+00  0.0000000000000D+00
   381  3.8000000000000D+00  0.0000000000000D+00  0.0000000000000D+00
   382  3.8100000000000D+00  0.0000000000000D+00  0.0000000000000D+00
   383  3.8200000000000D+00  0.0000000000000D+00  0.0000000000000D+00
   384  3.8300000000000D+00  0.0000000000000D+00  0.0000000000000D+00
   385  3.8400000000000D+00  0.0000000000000D+00  0.0000000000000D+00
   386  3.8500000000000D+00  0.0000000000000D+00  0.0000000000000D+00
   387  3.8600000000000D+00  0.0000000000000D+00  0.0000000000000D+00
   388  3.8700000000000D+00  0.0000000000000D+00  0.0000000000000D+00
   389  3.8800000000000D+00  0.0000000000000D+00  0.0000000000000D+00
   390  3.8900000000000D+00  0.0000000000000D+00  0.0000000000000D+00
   391  3.9000000000000D+00  0.0000000000000D+00  0.0000000000000D+00
   392  3.9100000000000D+00  0.0000000000000D+00  0.0000000000000D+00
   393  3.9200000000000D+00  0.0000000000000D+00  0.0000000000000D+00
   394  3.9300000000000D+00  0.0000000000000D+00  0.0000000000000D+00
   395  3.9400000000000D+00  0.0000000000000D+00  0.0000000000000D+00
   396  3.9500000000000D+00  0.0000000000000D+00  0.0000000000000D+00
   397  3.9600000000000D+00  0.0000000000000D+00  0.0000000000000D+00
   398  3.9700000000000D+00  0.0000000000000D+00  0.0000000000000D+00
   399  3.9800000000000D+00  0.0000000000000D+00  0.0000000000000D+00
   400  3.9900000000000D+00  0.0000000000000D+00  0.0000000000000D+00
   1                         4.1996722650887D+00  7.5734820606107D-01
     1  0.0000000000000D+00  1.0091759372610D-10 -5.3539946781589D-11
     2  1.0000000000000D-02  1.1946066586343D-03 -3.9588356808869D-04
     3  2.0000000000000D-02  4.7729072190405D-03 -1.5801718709470D-03
     4  3.0000000000000D-02  1.0718366331001D-02 -3.5427934958803D-03
     5  4.0000000000000D-02  1.9003501352761D-02 -6.2670153721732D-03
     6  5.0000000000000D-02  2.9589996603562D-02 -9.7295216213698D-03
     7  6.0000000000000D-02  4.2428862994256D-02 -1.3900523794423D-02
     8  7.0000000000000D-02  5.7460642707908D-02 -1.8743902336641D-02
     9  8.0000000000000D-02  7.4615658501413D-02 -2.4217379067818D-02
    10  9.0000000000000D-02  9.3814307093031D-02 -3.0272720405373D-02
    11  1.0000000000000D-01  1.1496739598847D-01 -3.6855970991865D-02
    12  1.1000000000000D-01  1.3797652297905D-01 -4.3907717313768D-02
    13  1.2000000000000D-01  1.6273449741871D-01 -5.1363380815206D-02
    14  1.3000000000000D-01  1.8912580225179D-01 -5.9153539917744D-02
    15  1.4000000000000D-01  2.1702709562045D-01 -6.7204280254885D-02
    16  1.5000000000000D-01  2.4630775072884D-01 -7.5437572317437D-02
    17  1.6000000000000D-01  2.7683043248118D-01 -8.3771675583225D-02
    18  1.7000000000000D-01  3.0845170924269D-01 -9.2121568072017D-02
    19  1.8000000000000D-01  3.4102269789682D-01 -1.0039940012442D-01
    20  1.9000000000000D-01  3.7438974018945D-01 -1.0851497105231D-01
    21  2.0000000000000D-01  4.0839510816266D-01 -1.1637622714925D-01
    22  2.1000000000000D-01  4.4287773628741D-01 -1.2388977938306D-01