Y     ONCVPSP-3.3.0  r_core=   1.60520   1.51226   1.56736
     39.0000     11.0000      220408    zatom,zion,pspd
     8       2   2     4   600     0    pspcod,pspxc,lmax,lloc,mmax,r2well
  5.99000000  0.00000000  0.00000000    rchrg fchrg qchrg
     2     2     2     0     0    nproj
     1     1           extension_switch
   0                         1.0114136023347D+01  8.6507476187082D-01
     1  0.0000000000000D+00  7.1346484276091D-11 -2.6093666116722D-10
     2  1.0000000000000D-02  4.9127805064847D-02 -8.9803793233189D-03
     3  2.0000000000000D-02  9.8221917659123D-02 -1.8020719429575D-02
     4  3.0000000000000D-02  1.4724843658544D-01 -2.7180000299205D-02
     5  4.0000000000000D-02  1.9617304553076D-01 -3.6515249031991D-02
     6  5.0000000000000D-02  2.4496081133554D-01 -4.6080585151286D-02
     7  6.0000000000000D-02  2.9357598920430D-01 -5.5926291816316D-02
     8  7.0000000000000D-02  3.4198183708767D-01 -6.6097921271061D-02
     9  8.0000000000000D-02  3.9014044139412D-01 -7.6635442597248D-02
    10  9.0000000000000D-02  4.3801255610156D-01 -8.7572439516312D-02
    11  1.0000000000000D-01  4.8555745723439D-01 -9.8935365602716D-02
    12  1.1000000000000D-01  5.3273281455148D-01 -1.1074286383171D-01
    13  1.2000000000000D-01  5.7949458215548D-01 -1.2300515689125D-01
    14  1.3000000000000D-01  6.2579690958542D-01 -1.3572351414407D-01
    15  1.4000000000000D-01  6.7159207479264D-01 -1.4888980053504D-01
    16  1.5000000000000D-01  7.1683044022748D-01 -1.6248611210596D-01
    17  1.6000000000000D-01  7.6146043307994D-01 -1.7648450210848D-01
    18  1.7000000000000D-01  8.0542855052513D-01 -1.9084680100066D-01
    19  1.8000000000000D-01  8.4867939062374D-01 -2.0552453287964D-01
    20  1.9000000000000D-01  8.9115570932036D-01 -2.2045893014569D-01
    21  2.0000000000000D-01  9.3279850377130D-01 -2.3558104741887D-01
    22  2.1000000000000D-01  9.7354712201749D-01 -2.5081197494155D-01
    23  2.2000000000000D-01  1.0133393988015D+00 -2.6606315090755D-01
    24  2.3000000000000D-01  1.0521118171100D+00 -2.8123677136263D-01
    25  2.4000000000000D-01  1.0897996948067D+00 -2.9622629553257D-01
    26  2.5000000000000D-01  1.1263373955082D+00 -3.1091704365486D-01
    27  2.6000000000000D-01  1.1616585626457D+00 -3.2518688362841D-01
    28  2.7000000000000D-01  1.1956963754521D+00 -3.3890700205422D-01
    29  2.8000000000000D-01  1.2283838254218D+00 -3.5194275452868D-01
    30  2.9000000000000D-01  1.2596540115999D+00 -3.6415458937036D-01
    31  3.0000000000000D-01  1.2894404528853D+00 -3.7539903832187D-01
    32  3.1000000000000D-01  1.3176774153667D+00 -3.8552976717006D-01
    33  3.2000000000000D-01  1.3443002525600D+00 -3.9439867867998D-01
    34  3.3000000000000D-01  1.3692457562795D+00 -4.0185705974169D-01
    35  3.4000000000000D-01  1.3924525157537D+00 -4.0775676419023D-01
    36  3.5000000000000D-01  1.4138612824933D+00 -4.1195142238164D-01
    37  3.6000000000000D-01  1.4334153383305D+00 -4.1429766829334D-01
    38  3.7000000000000D-01  1.4510608639816D+00 -4.1465637467138D-01
    39  3.8000000000000D-01  1.4667473054340D+00 -4.1289388656985D-01
    40  3.9000000000000D-01  1.4804277354291D+00 -4.0888324352234D-01
    41  4.0000000000000D-01  1.4920592073017D+00 -4.0250538055378D-01
    42  4.1000000000000D-01  1.5016030984471D+00 -3.9365029828295D-01
    43  4.2000000000000D-01  1.5090254407168D+00 -3.8221819248262D-01
    44  4.3000000000000D-01  1.5142972350935D+00 -3.6812053365638D-01
    45  4.4000000000000D-01  1.5173947480685D+00 -3.5128108745588D-01
    46  4.5000000000000D-01  1.5182997872340D+00 -3.3163686710101D-01
    47  4.6000000000000D-01  1.5169999537113D+00 -3.0913900937436D-01
    48  4.7000000000000D-01  1.5134888691685D+00 -2.8375356623934D-01
    49  4.8000000000000D-01  1.5077663753238D+00 -2.5546220467539D-01
    50  4.9000000000000D-01  1.4998387039972D+00 -2.2426280792954D-01
    51  5.0000000000000D-01  1.4897186159517D+00 -1.9016997204897D-01
    52  5.1000000000000D-01  1.4774255069624D+00 -1.5321539227818D-01
    53  5.2000000000000D-01  1.4629854797574D+00 -1.1344813467309D-01
    54  5.3000000000000D-01  1.4464313806990D+00 -7.0934789097094D-02
    55  5.4000000000000D-01  1.4278028003027D+00 -2.5759500615260D-02
    56  5.5000000000000D-01  1.4071460369338D+00  2.1976122813092D-02
    57  5.6000000000000D-01  1.3845140232700D+00  7.2153227534674D-02
    58  5.7000000000000D-01  1.3599662153734D+00  1.2463605655574D-01
    59  5.8000000000000D-01  1.3335684444701D+00  1.7927241636981D-01
    60  5.9000000000000D-01  1.3053927318012D+00  2.3589426663148D-01
    61  6.0000000000000D-01  1.2755170671653D+00  2.9431843010520D-01
    62  6.1000000000000D-01  1.2440251520317D+00  3.5434741937957D-01
    63  6.2000000000000D-01  1.2110061083604D+00  4.1577037592048D-01
    64  6.3000000000000D-01  1.1765541545117D+00  4.7836411613800D-01
    65  6.4000000000000D-01  1.1407682498707D+00  5.4189427827869D-01
    66  6.5000000000000D-01  1.1037517100447D+00  6.0611656312762D-01
    67  6.6000000000000D-01  1.0656117947101D+00  6.7077806071998D-01
    68  6.7000000000000D-01  1.0264592703953D+00  7.3561865453477D-01
    69  6.8000000000000D-01  9.8640795067613D-01  8.0037249396620D-01
    70  6.9000000000000D-01  9.4557421644077D-01  8.6476952526069D-01
    71  7.0000000000000D-01  9.0407651903434D-01  9.2853707056485D-01
    72  7.1000000000000D-01  8.6203486923740D-01  9.9140144426526D-01
    73  7.2000000000000D-01  8.1957031514898D-01  1.0530895954092D+00
    74  7.3000000000000D-01  7.7680441214283D-01  1.1133307646920D+00
    75  7.4000000000000D-01  7.3385868814069D-01  1.1718581442742D+00
    76  7.5000000000000D-01  6.9085410749812D-01  1.2284105285610D+00
    77  7.6000000000000D-01  6.4791053682646D-01  1.2827339440331D+00
    78  7.7000000000000D-01  6.0514621607868D-01  1.3345832462676D+00
    79  7.8000000000000D-01  5.6267723820618D-01  1.3837236724319D+00
    80  7.9000000000000D-01  5.2061704064907D-01  1.4299323377610D+00
    81  8.0000000000000D-01  4.7907591185314D-01  1.4729996648621D+00
    82  8.1000000000000D-01  4.3816051591419D-01  1.5127307350944D+00
    83  8.2000000000000D-01  3.9797343833383D-01  1.5489465517823D+00
    84  8.3000000000000D-01  3.5861275573237D-01  1.5814852055979D+00
    85  8.4000000000000D-01  3.2017163220379D-01  1.6102029331180D+00
    86  8.5000000000000D-01  2.8273794481687D-01  1.6349750602990D+00
    87  8.6000000000000D-01  2.4639394056638D-01  1.6556968234253D+00
    88  8.7000000000000D-01  2.1121592686006D-01  1.6722840609606D+00
    89  8.8000000000000D-01  1.7727399739283D-01  1.6846737706656D+00
    90  8.9000000000000D-01  1.4463179501107D-01  1.6928245273298D+00
    91  9.0000000000000D-01  1.1334631290824D-01  1.6967167574942D+00
    92  9.1000000000000D-01  8.3467735221176D-02  1.6963528686014D+00
    93  9.2000000000000D-01  5.5039317815955D-02  1.6917572311079D+00
    94  9.3000000000000D-01  2.8097309765242D-02  1.6829760131949D+00
    95  9.4000000000000D-01  2.6709157281122D-03  1.6700768688423D+00
    96  9.5000000000000D-01 -2.1217700849474D-02  1.6531484811447D+00
    97  9.6000000000000D-01 -4.3553374087206D-02  1.6322999638642D+00
    98  9.7000000000000D-01 -6.4327852241932D-02  1.6076601253196D+00
    99  9.8000000000000D-01 -8.3539675441814D-02  1.5793765997557D+00
   100  9.9000000000000D-01 -1.0119401581097D-01  1.5476148523991D+00
   101  1.0000000000000D+00 -1.1730248147574D-01  1.5125570653836D+00
   102  1.0100000000000D+00 -1.3188288619915D-01  1.4744009126655D+00
   103  1.0200000000000D+00 -1.4495898663166D-01  1.4333582329282D+00
   104  1.0300000000000D+00 -1.5656018939118D-01  1.3896536102840D+00
   105  1.0400000000000D+00 -1.6672123039627D-01  1.3435228733268D+00
   106  1.0500000000000D+00 -1.7548182905167D-01  1.2952115236974D+00
   107  1.0600000000000D+00 -1.8288632006996D-01  1.2449731059517D+00
   108  1.0700000000000D+00 -1.8898326584243D-01  1.1930675309400D+00
   109  1.0800000000000D+00 -1.9382505239790D-01  1.1397593653002D+00
   110  1.0900000000000D+00 -1.9746747208271D-01  1.0853160999295D+00
   111  1.1000000000000D+00 -1.9996929615925D-01  1.0300064104633D+00
   112  1.1100000000000D+00 -2.0139184057280D-01  9.7409842286590D-01
   113  1.1200000000000D+00 -2.0179852814437D-01  9.1785799717187D-01
   114  1.1300000000000D+00 -2.0125445043344D-01  8.6154704223846D-01
   115  1.1400000000000D+00 -1.9982593248574D-01  8.0542187415771D-01
   116  1.1500000000000D+00 -1.9758010361162D-01  7.4973163057191D-01
   117  1.1600000000000D+00 -1.9458447724966D-01  6.9471675266725D-01
   118  1.1700000000000D+00 -1.9090654283323D-01  6.4060754595443D-01
   119  1.1800000000000D+00 -1.8661337248967D-01  5.8762283051626D-01
   120  1.1900000000000D+00 -1.8177124518260D-01  5.3596869038091D-01
   121  1.2000000000000D+00 -1.7644529073757D-01  4.8583733091696D-01
   122  1.2100000000000D+00 -1.7069915597984D-01  4.3740605219857D-01
   123  1.2200000000000D+00 -1.6459469504302D-01  3.9083634552871D-01
   124  1.2300000000000D+00 -1.5819168557228D-01  3.4627311884430D-01
   125  1.2400000000000D+00 -1.5154757228682D-01  3.0384405561541D-01
   126  1.2500000000000D+00 -1.4471723928160D-01  2.6365911147311D-01
   127  1.2600000000000D+00 -1.3775281190832D-01  2.2581015048972D-01
   128  1.2700000000000D+00 -1.3070348887447D-01  1.9037072219767D-01
   129  1.2800000000000D+00 -1.2361540510103D-01  1.5739598000311D-01
   130  1.2900000000000D+00 -1.1653152528625D-01  1.2692273915491D-01
   131  1.3000000000000D+00 -1.0949156789728D-01  9.8969671504842D-02
   132  1.3100000000000D+00 -1.0253195930733D-01  7.3537634260355D-02
   133  1.3200000000000D+00 -9.5685817063593D-02  5.0610126897472D-02
   134  1.3300000000000D+00 -8.8982961195348D-02  3.0153870110040D-02
   135  1.3400000000000D+00 -8.2449952431530D-02  1.2119500483216D-02
   136  1.3500000000000D+00 -7.6110155415410D-02 -3.5576286008871D-03
   137  1.3600000000000D+00 -6.9983825202107D-02 -1.6956548494431D-02
   138  1.3700000000000D+00 -6.4088215000269D-02 -2.8169689262520D-02
   139  1.3800000000000D+00 -5.8437702620767D-02 -3.7301818076528D-02
   140  1.3900000000000D+00 -5.3043933399106D-02 -4.4468912794647D-02
   141  1.4000000000000D+00 -4.7915976733915D-02 -4.9796983974105D-02
   142  1.4100000000000D+00 -4.3060493455026D-02 -5.3420858206680D-02
   143  1.4200000000000D+00 -3.8481911193328D-02 -5.5482935920599D-02
   144  1.4300000000000D+00 -3.4182604547282D-02 -5.6131938085588D-02
   145  1.4400000000000D+00 -3.0163077111673D-02 -5.5521655313231D-02
   146  1.4500000000000D+00 -2.6422142091321D-02 -5.3809714050583D-02
   147  1.4600000000000D+00 -2.2957098485261D-02 -5.1156373422326D-02
   148  1.4700000000000D+00 -1.9763899522088D-02 -4.7723367659335D-02
   149  1.4800000000000D+00 -1.6837300207113D-02 -4.3672858100449D-02
   150  1.4900000000000D+00 -1.4171037737775D-02 -3.9166224545217D-02
   151  1.5000000000000D+00 -1.1757978941409D-02 -3.4363016800609D-02
   152  1.5100000000000D+00 -9.5899743266885D-03 -2.9421407347852D-02
   153  1.5200000000000D+00 -7.6582182266487D-03 -2.4496062143280D-02
   154  1.5300000000000D+00 -5.9537514125992D-03 -1.9735238017818D-02
   155  1.5400000000000D+00 -4.4683578870369D-03 -1.5276137203003D-02
   156  1.5500000000000D+00 -3.1959767206170D-03 -1.1239069336145D-02
   157  1.5600000000000D+00 -2.1327224956662D-03 -7.7276582608328D-03
   158  1.5700000000000D+00 -1.2731921432109D-03 -4.8100930843506D-03
   159  1.5800000000000D+00 -6.2031641987764D-04 -2.5651410691328D-03
   160  1.5900000000000D+00 -1.8797526031525D-04 -1.1124934373562D-03
   161  1.6000000000000D+00  3.1533327867303D-05 -3.8906747641265D-04
   162  1.6100000000000D+00  7.6229798651418D-05 -1.0145825157687D-04
   163  1.6200000000000D+00  2.6001267574589D-05 -1.0510984719860D-05
   164  1.6300000000000D+00 -1.2598093558340D-05  1.6707496430329D-06
   165  1.6400000000000D+00 -7.2462721501038D-06 -3.7823790023116D-07
   166  1.6500000000000D+00  2.5664354914145D-06 -1.0887061709134D-06
   167  1.6600000000000D+00  1.4893530619256D-06 -4.9413833290173D-07
   168  1.6700000000000D+00 -1.8622090906267D-07  5.2263455921758D-07
   169  1.6800000000000D+00 -1.0818200694208D-07  3.0361604289247D-07
   170  1.6900000000000D+00  0.0000000000000D+00  0.0000000000000D+00
   171  1.7000000000000D+00  0.0000000000000D+00  0.0000000000000D+00
   172  1.7100000000000D+00  0.0000000000000D+00  0.0000000000000D+00
   173  1.7200000000000D+00  0.0000000000000D+00  0.0000000000000D+00
   174  1.7300000000000D+00  0.0000000000000D+00  0.0000000000000D+00
   175  1.7400000000000D+00  0.0000000000000D+00  0.0000000000000D+00
   176  1.7500000000000D+00  0.0000000000000D+00  0.0000000000000D+00
   177  1.7600000000000D+00  0.0000000000000D+00  0.0000000000000D+00
   178  1.7700000000000D+00  0.0000000000000D+00  0.0000000000000D+00
   179  1.7800000000000D+00  0.0000000000000D+00  0.0000000000000D+00
   180  1.7900000000000D+00  0.0000000000000D+00  0.0000000000000D+00
   181  1.8000000000000D+00  0.0000000000000D+00  0.0000000000000D+00
   182  1.8100000000000D+00  0.0000000000000D+00  0.0000000000000D+00
   183  1.8200000000000D+00  0.0000000000000D+00  0.0000000000000D+00
   184  1.8300000000000D+00  0.0000000000000D+00  0.0000000000000D+00
   185  1.8400000000000D+00  0.0000000000000D+00  0.0000000000000D+00
   186  1.8500000000000D+00  0.0000000000000D+00  0.0000000000000D+00
   187  1.8600000000000D+00  0.0000000000000D+00  0.0000000000000D+00
   188  1.8700000000000D+00  0.0000000000000D+00  0.0000000000000D+00
   189  1.8800000000000D+00  0.0000000000000D+00  0.0000000000000D+00
   190  1.8900000000000D+00  0.0000000000000D+00  0.0000000000000D+00
   191  1.9000000000000D+00  0.0000000000000D+00  0.0000000000000D+00
   192  1.9100000000000D+00  0.0000000000000D+00  0.0000000000000D+00
   193  1.9200000000000D+00  0.0000000000000D+00  0.0000000000000D+00
   194  1.9300000000000D+00  0.0000000000000D+00  0.0000000000000D+00
   195  1.9400000000000D+00  0.0000000000000D+00  0.0000000000000D+00
   196  1.9500000000000D+00  0.0000000000000D+00  0.0000000000000D+00
   197  1.9600000000000D+00  0.0000000000000D+00  0.0000000000000D+00
   198  1.9700000000000D+00  0.0000000000000D+00  0.0000000000000D+00
   199  1.9800000000000D+00  0.0000000000000D+00  0.0000000000000D+00
   200  1.9900000000000D+00  0.0000000000000D+00  0.0000000000000D+00
   201  2.0000000000000D+00  0.0000000000000D+00  0.0000000000000D+00
   202  2.0100000000000D+00  0.0000000000000D+00  0.0000000000000D+00
   203  2.0200000000000D+00  0.0000000000000D+00  0.0000000000000D+00
   204  2.0300000000000D+00  0.0000000000000D+00  0.0000000000000D+00
   205  2.0400000000000D+00  0.0000000000000D+00  0.0000000000000D+00
   206  2.0500000000000D+00  0.0000000000000D+00  0.0000000000000D+00
   207  2.0600000000000D+00  0.0000000000000D+00  0.0000000000000D+00
   208  2.0700000000000D+00  0.0000000000000D+00  0.0000000000000D+00
   209  2.0800000000000D+00  0.0000000000000D+00  0.0000000000000D+00
   210  2.0900000000000D+00  0.0000000000000D+00  0.0000000000000D+00
   211  2.1000000000000D+00  0.0000000000000D+00  0.0000000000000D+00
   212  2.1100000000000D+00  0.0000000000000D+00  0.0000000000000D+00
   213  2.1200000000000D+00  0.0000000000000D+00  0.0000000000000D+00
   214  2.1300000000000D+00  0.0000000000000D+00  0.0000000000000D+00
   215  2.1400000000000D+00  0.0000000000000D+00  0.0000000000000D+00
   216  2.1500000000000D+00  0.0000000000000D+00  0.0000000000000D+00
   217  2.1600000000000D+00  0.0000000000000D+00  0.0000000000000D+00
   218  2.1700000000000D+00  0.0000000000000D+00  0.0000000000000D+00
   219  2.1800000000000D+00  0.0000000000000D+00  0.0000000000000D+00
   220  2.1900000000000D+00  0.0000000000000D+00  0.0000000000000D+00
   221  2.2000000000000D+00  0.0000000000000D+00  0.0000000000000D+00
   222  2.2100000000000D+00  0.0000000000000D+00  0.0000000000000D+00
   223  2.2200000000000D+00  0.0000000000000D+00  0.0000000000000D+00
   224  2.2300000000000D+00  0.0000000000000D+00  0.0000000000000D+00
   225  2.2400000000000D+00  0.0000000000000D+00  0.0000000000000D+00
   226  2.2500000000000D+00  0.0000000000000D+00  0.0000000000000D+00
   227  2.2600000000000D+00  0.0000000000000D+00  0.0000000000000D+00
   228  2.2700000000000D+00  0.0000000000000D+00  0.0000000000000D+00
   229  2.2800000000000D+00  0.0000000000000D+00  0.0000000000000D+00
   230  2.2900000000000D+00  0.0000000000000D+00  0.0000000000000D+00
   231  2.3000000000000D+00  0.0000000000000D+00  0.0000000000000D+00
   232  2.3100000000000D+00  0.0000000000000D+00  0.0000000000000D+00
   233  2.3200000000000D+00  0.0000000000000D+00  0.0000000000000D+00
   234  2.3300000000000D+00  0.0000000000000D+00  0.0000000000000D+00
   235  2.3400000000000D+00  0.0000000000000D+00  0.0000000000000D+00
   236  2.3500000000000D+00  0.0000000000000D+00  0.0000000000000D+00
   237  2.3600000000000D+00  0.0000000000000D+00  0.0000000000000D+00
   238  2.3700000000000D+00  0.0000000000000D+00  0.0000000000000D+00
   239  2.3800000000000D+00  0.0000000000000D+00  0.0000000000000D+00
   240  2.3900000000000D+00  0.0000000000000D+00  0.0000000000000D+00
   241  2.4000000000000D+00  0.0000000000000D+00  0.0000000000000D+00
   242  2.4100000000000D+00  0.0000000000000D+00  0.0000000000000D+00
   243  2.4200000000000D+00  0.0000000000000D+00  0.0000000000000D+00
   244  2.4300000000000D+00  0.0000000000000D+00  0.0000000000000D+00
   245  2.4400000000000D+00  0.0000000000000D+00  0.0000000000000D+00
   246  2.4500000000000D+00  0.0000000000000D+00  0.0000000000000D+00
   247  2.4600000000000D+00  0.0000000000000D+00  0.0000000000000D+00
   248  2.4700000000000D+00  0.0000000000000D+00  0.0000000000000D+00
   249  2.4800000000000D+00  0.0000000000000D+00  0.0000000000000D+00
   250  2.4900000000000D+00  0.0000000000000D+00  0.0000000000000D+00
   251  2.5000000000000D+00  0.0000000000000D+00  0.0000000000000D+00
   252  2.5100000000000D+00  0.0000000000000D+00  0.0000000000000D+00
   253  2.5200000000000D+00  0.0000000000000D+00  0.0000000000000D+00
   254  2.5300000000000D+00  0.0000000000000D+00  0.0000000000000D+00
   255  2.5400000000000D+00  0.0000000000000D+00  0.0000000000000D+00
   256  2.5500000000000D+00  0.0000000000000D+00  0.0000000000000D+00
   257  2.5600000000000D+00  0.0000000000000D+00  0.0000000000000D+00
   258  2.5700000000000D+00  0.0000000000000D+00  0.0000000000000D+00
   259  2.5800000000000D+00  0.0000000000000D+00  0.0000000000000D+00
   260  2.5900000000000D+00  0.0000000000000D+00  0.0000000000000D+00
   261  2.6000000000000D+00  0.0000000000000D+00  0.0000000000000D+00
   262  2.6100000000000D+00  0.0000000000000D+00  0.0000000000000D+00
   263  2.6200000000000D+00  0.0000000000000D+00  0.0000000000000D+00
   264  2.6300000000000D+00  0.0000000000000D+00  0.0000000000000D+00
   265  2.6400000000000D+00  0.0000000000000D+00  0.0000000000000D+00
   266  2.6500000000000D+00  0.0000000000000D+00  0.0000000000000D+00
   267  2.6600000000000D+00  0.0000000000000D+00  0.0000000000000D+00
   268  2.6700000000000D+00  0.0000000000000D+00  0.0000000000000D+00
   269  2.6800000000000D+00  0.0000000000000D+00  0.0000000000000D+00
   270  2.6900000000000D+00  0.0000000000000D+00  0.0000000000000D+00
   271  2.7000000000000D+00  0.0000000000000D+00  0.0000000000000D+00
   272  2.7100000000000D+00  0.0000000000000D+00  0.0000000000000D+00
   273  2.7200000000000D+00  0.0000000000000D+00  0.0000000000000D+00
   274  2.7300000000000D+00  0.0000000000000D+00  0.0000000000000D+00
   275  2.7400000000000D+00  0.0000000000000D+00  0.0000000000000D+00
   276  2.7500000000000D+00  0.0000000000000D+00  0.0000000000000D+00
   277  2.7600000000000D+00  0.0000000000000D+00  0.0000000000000D+00
   278  2.7700000000000D+00  0.0000000000000D+00  0.0000000000000D+00
   279  2.7800000000000D+00  0.0000000000000D+00  0.0000000000000D+00
   280  2.7900000000000D+00  0.0000000000000D+00  0.0000000000000D+00
   281  2.8000000000000D+00  0.0000000000000D+00  0.0000000000000D+00
   282  2.8100000000000D+00  0.0000000000000D+00  0.0000000000000D+00
   283  2.8200000000000D+00  0.0000000000000D+00  0.0000000000000D+00
   284  2.8300000000000D+00  0.0000000000000D+00  0.0000000000000D+00
   285  2.8400000000000D+00  0.0000000000000D+00  0.0000000000000D+00
   286  2.8500000000000D+00  0.0000000000000D+00  0.0000000000000D+00
   287  2.8600000000000D+00  0.0000000000000D+00  0.0000000000000D+00
   288  2.8700000000000D+00  0.0000000000000D+00  0.0000000000000D+00
   289  2.8800000000000D+00  0.0000000000000D+00  0.0000000000000D+00
   290  2.8900000000000D+00  0.0000000000000D+00  0.0000000000000D+00
   291  2.9000000000000D+00  0.0000000000000D+00  0.0000000000000D+00
   292  2.9100000000000D+00  0.0000000000000D+00  0.0000000000000D+00
   293  2.9200000000000D+00  0.0000000000000D+00  0.0000000000000D+00
   294  2.9300000000000D+00  0.0000000000000D+00  0.0000000000000D+00
   295  2.9400000000000D+00  0.0000000000000D+00  0.0000000000000D+00
   296  2.9500000000000D+00  0.0000000000000D+00  0.0000000000000D+00
   297  2.9600000000000D+00  0.0000000000000D+00  0.0000000000000D+00
   298  2.9700000000000D+00  0.0000000000000D+00  0.0000000000000D+00
   299  2.9800000000000D+00  0.0000000000000D+00  0.0000000000000D+00
   300  2.9900000000000D+00  0.0000000000000D+00  0.0000000000000D+00
   301  3.0000000000000D+00  0.0000000000000D+00  0.0000000000000D+00
   302  3.0100000000000D+00  0.0000000000000D+00  0.0000000000000D+00
   303  3.0200000000000D+00  0.0000000000000D+00  0.0000000000000D+00
   304  3.0300000000000D+00  0.0000000000000D+00  0.0000000000000D+00
   305  3.0400000000000D+00  0.0000000000000D+00  0.0000000000000D+00
   306  3.0500000000000D+00  0.0000000000000D+00  0.0000000000000D+00
   307  3.0600000000000D+00  0.0000000000000D+00  0.0000000000000D+00
   308  3.0700000000000D+00  0.0000000000000D+00  0.0000000000000D+00
   309  3.0800000000000D+00  0.0000000000000D+00  0.0000000000000D+00
   310  3.0900000000000D+00  0.0000000000000D+00  0.0000000000000D+00
   311  3.1000000000000D+00  0.0000000000000D+00  0.0000000000000D+00
   312  3.1100000000000D+00  0.0000000000000D+00  0.0000000000000D+00
   313  3.1200000000000D+00  0.0000000000000D+00  0.0000000000000D+00
   314  3.1300000000000D+00  0.0000000000000D+00  0.0000000000000D+00
   315  3.1400000000000D+00  0.0000000000000D+00  0.0000000000000D+00
   316  3.1500000000000D+00  0.0000000000000D+00  0.0000000000000D+00
   317  3.1600000000000D+00  0.0000000000000D+00  0.0000000000000D+00
   318  3.1700000000000D+00  0.0000000000000D+00  0.0000000000000D+00
   319  3.1800000000000D+00  0.0000000000000D+00  0.0000000000000D+00
   320  3.1900000000000D+00  0.0000000000000D+00  0.0000000000000D+00
   321  3.2000000000000D+00  0.0000000000000D+00  0.0000000000000D+00
   322  3.2100000000000D+00  0.0000000000000D+00  0.0000000000000D+00
   323  3.2200000000000D+00  0.0000000000000D+00  0.0000000000000D+00
   324  3.2300000000000D+00  0.0000000000000D+00  0.0000000000000D+00
   325  3.2400000000000D+00  0.0000000000000D+00  0.0000000000000D+00
   326  3.2500000000000D+00  0.0000000000000D+00  0.0000000000000D+00
   327  3.2600000000000D+00  0.0000000000000D+00  0.0000000000000D+00
   328  3.2700000000000D+00  0.0000000000000D+00  0.0000000000000D+00
   329  3.2800000000000D+00  0.0000000000000D+00  0.0000000000000D+00
   330  3.2900000000000D+00  0.0000000000000D+00  0.0000000000000D+00
   331  3.3000000000000D+00  0.0000000000000D+00  0.0000000000000D+00
   332  3.3100000000000D+00  0.0000000000000D+00  0.0000000000000D+00
   333  3.3200000000000D+00  0.0000000000000D+00  0.0000000000000D+00
   334  3.3300000000000D+00  0.0000000000000D+00  0.0000000000000D+00
   335  3.3400000000000D+00  0.0000000000000D+00  0.0000000000000D+00
   336  3.3500000000000D+00  0.0000000000000D+00  0.0000000000000D+00
   337  3.3600000000000D+00  0.0000000000000D+00  0.0000000000000D+00
   338  3.3700000000000D+00  0.0000000000000D+00  0.0000000000000D+00
   339  3.3800000000000D+00  0.0000000000000D+00  0.0000000000000D+00
   340  3.3900000000000D+00  0.0000000000000D+00  0.0000000000000D+00
   341  3.4000000000000D+00  0.0000000000000D+00  0.0000000000000D+00
   342  3.4100000000000D+00  0.0000000000000D+00  0.0000000000000D+00
   343  3.4200000000000D+00  0.0000000000000D+00  0.0000000000000D+00
   344  3.4300000000000D+00  0.0000000000000D+00  0.0000000000000D+00
   345  3.4400000000000D+00  0.0000000000000D+00  0.0000000000000D+00
   346  3.4500000000000D+00  0.0000000000000D+00  0.0000000000000D+00
   347  3.4600000000000D+00  0.0000000000000D+00  0.0000000000000D+00
   348  3.4700000000000D+00  0.0000000000000D+00  0.0000000000000D+00
   349  3.4800000000000D+00  0.0000000000000D+00  0.0000000000000D+00
   350  3.4900000000000D+00  0.0000000000000D+00  0.0000000000000D+00
   351  3.5000000000000D+00  0.0000000000000D+00  0.0000000000000D+00
   352  3.5100000000000D+00  0.0000000000000D+00  0.0000000000000D+00
   353  3.5200000000000D+00  0.0000000000000D+00  0.0000000000000D+00
   354  3.5300000000000D+00  0.0000000000000D+00  0.0000000000000D+00
   355  3.5400000000000D+00  0.0000000000000D+00  0.0000000000000D+00
   356  3.5500000000000D+00  0.0000000000000D+00  0.0000000000000D+00
   357  3.5600000000000D+00  0.0000000000000D+00  0.0000000000000D+00
   358  3.5700000000000D+00  0.0000000000000D+00  0.0000000000000D+00
   359  3.5800000000000D+00  0.0000000000000D+00  0.0000000000000D+00
   360  3.5900000000000D+00  0.0000000000000D+00  0.0000000000000D+00
   361  3.6000000000000D+00  0.0000000000000D+00  0.0000000000000D+00
   362  3.6100000000000D+00  0.0000000000000D+00  0.0000000000000D+00
   363  3.6200000000000D+00  0.0000000000000D+00  0.0000000000000D+00
   364  3.6300000000000D+00  0.0000000000000D+00  0.0000000000000D+00
   365  3.6400000000000D+00  0.0000000000000D+00  0.0000000000000D+00
   366  3.6500000000000D+00  0.0000000000000D+00  0.0000000000000D+00
   367  3.6600000000000D+00  0.0000000000000D+00  0.0000000000000D+00
   368  3.6700000000000D+00  0.0000000000000D+00  0.0000000000000D+00
   369  3.6800000000000D+00  0.0000000000000D+00  0.0000000000000D+00
   370  3.6900000000000D+00  0.0000000000000D+00  0.0000000000000D+00
   371  3.7000000000000D+00  0.0000000000000D+00  0.0000000000000D+00
   372  3.7100000000000D+00  0.0000000000000D+00  0.0000000000000D+00
   373  3.7200000000000D+00  0.0000000000000D+00  0.0000000000000D+00
   374  3.7300000000000D+00  0.0000000000000D+00  0.0000000000000D+00
   375  3.7400000000000D+00  0.0000000000000D+00  0.0000000000000D+00
   376  3.7500000000000D+00  0.0000000000000D+00  0.0000000000000D+00
   377  3.7600000000000D+00  0.0000000000000D+00  0.0000000000000D+00
   378  3.7700000000000D+00  0.0000000000000D+00  0.0000000000000D+00
   379  3.7800000000000D+00  0.0000000000000D+00  0.0000000000000D+00
   380  3.7900000000000D+00  0.0000000000000D+00  0.0000000000000D+00
   381  3.8000000000000D+00  0.0000000000000D+00  0.0000000000000D+00
   382  3.8100000000000D+00  0.0000000000000D+00  0.0000000000000D+00
   383  3.8200000000000D+00  0.0000000000000D+00  0.0000000000000D+00
   384  3.8300000000000D+00  0.0000000000000D+00  0.0000000000000D+00
   385  3.8400000000000D+00  0.0000000000000D+00  0.0000000000000D+00
   386  3.8500000000000D+00  0.0000000000000D+00  0.0000000000000D+00
   387  3.8600000000000D+00  0.0000000000000D+00  0.0000000000000D+00
   388  3.8700000000000D+00  0.0000000000000D+00  0.0000000000000D+00
   389  3.8800000000000D+00  0.0000000000000D+00  0.0000000000000D+00
   390  3.8900000000000D+00  0.0000000000000D+00  0.0000000000000D+00
   391  3.9000000000000D+00  0.0000000000000D+00  0.0000000000000D+00
   392  3.9100000000000D+00  0.0000000000000D+00  0.0000000000000D+00
   393  3.9200000000000D+00  0.0000000000000D+00  0.0000000000000D+00
   394  3.9300000000000D+00  0.0000000000000D+00  0.0000000000000D+00
   395  3.9400000000000D+00  0.0000000000000D+00  0.0000000000000D+00
   396  3.9500000000000D+00  0.0000000000000D+00  0.0000000000000D+00
   397  3.9600000000000D+00  0.0000000000000D+00  0.0000000000000D+00
   398  3.9700000000000D+00  0.0000000000000D+00  0.0000000000000D+00
   399  3.9800000000000D+00  0.0000000000000D+00  0.0000000000000D+00
   400  3.9900000000000D+00  0.0000000000000D+00  0.0000000000000D+00
   401  4.0000000000000D+00  0.0000000000000D+00  0.0000000000000D+00
   402  4.0100000000000D+00  0.0000000000000D+00  0.0000000000000D+00
   403  4.0200000000000D+00  0.0000000000000D+00  0.0000000000000D+00
   404  4.0300000000000D+00  0.0000000000000D+00  0.0000000000000D+00
   405  4.0400000000000D+00  0.0000000000000D+00  0.0000000000000D+00
   406  4.0500000000000D+00  0.0000000000000D+00  0.0000000000000D+00
   407  4.0600000000000D+00  0.0000000000000D+00  0.0000000000000D+00
   408  4.0700000000000D+00  0.0000000000000D+00  0.0000000000000D+00
   409  4.0800000000000D+00  0.0000000000000D+00  0.0000000000000D+00
   410  4.0900000000000D+00  0.0000000000000D+00  0.0000000000000D+00
   411  4.1000000000000D+00  0.0000000000000D+00  0.0000000000000D+00
   412  4.1100000000000D+00  0.0000000000000D+00  0.0000000000000D+00
   413  4.1200000000000D+00  0.0000000000000D+00  0.0000000000000D+00
   414  4.1300000000000D+00  0.0000000000000D+00  0.0000000000000D+00
   415  4.1400000000000D+00  0.0000000000000D+00  0.0000000000000D+00
   416  4.1500000000000D+00  0.0000000000000D+00  0.0000000000000D+00
   417  4.1600000000000D+00  0.0000000000000D+00  0.0000000000000D+00
   418  4.1700000000000D+00  0.0000000000000D+00  0.0000000000000D+00
   419  4.1800000000000D+00  0.0000000000000D+00  0.0000000000000D+00
   420  4.1900000000000D+00  0.0000000000000D+00  0.0000000000000D+00
   421  4.2000000000000D+00  0.0000000000000D+00  0.0000000000000D+00
   422  4.2100000000000D+00  0.0000000000000D+00  0.0000000000000D+00