Sb    ONCVPSP-3.3.0  r_core=   1.81962   2.12485   1.81962
     51.0000     15.0000      220408    zatom,zion,pspd
     8       2   2     4   600     0    pspcod,pspxc,lmax,lloc,mmax,r2well
  5.99000000  0.00000000  0.00000000    rchrg fchrg qchrg
     2     2     2     0     0    nproj
     1     1           extension_switch
   0                         1.1088366124794D+01  1.8769462320687D+00
     1  0.0000000000000D+00 -1.2515471992103D-10  1.4948514648339D-10
     2  1.0000000000000D-02  5.1328263771051D-02 -4.2692543988878D-02
     3  2.0000000000000D-02  1.0243422594355D-01 -8.5109903461219D-02
     4  3.0000000000000D-02  1.5309683273207D-01 -1.2697841100389D-01
     5  4.0000000000000D-02  2.0309751932462D-01 -1.6802742543543D-01
     6  5.0000000000000D-02  2.5222143776886D-01 -2.0799082502153D-01
     7  6.0000000000000D-02  3.0025866502599D-01 -2.4660847691572D-01
     8  7.0000000000000D-02  3.4700538472821D-01 -2.8362767507518D-01
     9  8.0000000000000D-02  3.9226503630086D-01 -3.1880453905153D-01
    10  9.0000000000000D-02  4.3584942526574D-01 -3.5190536624182D-01
    11  1.0000000000000D-01  4.7757978872765D-01 -3.8270793040659D-01
    12  1.1000000000000D-01  5.1728781026083D-01 -4.1100271951789D-01
    13  1.2000000000000D-01  5.5481657865480D-01 -4.3659410629085D-01
    14  1.3000000000000D-01  5.9002148525014D-01 -4.5930144507491D-01
    15  1.4000000000000D-01  6.2277105489139D-01 -4.7896008913630D-01
    16  1.5000000000000D-01  6.5294770584706D-01 -4.9542232274795D-01
    17  1.6000000000000D-01  6.8044843439354D-01 -5.0855820291746D-01
    18  1.7000000000000D-01  7.0518542012895D-01 -5.1825630602485D-01
    19  1.8000000000000D-01  7.2708654847445D-01 -5.2442437510894D-01
    20  1.9000000000000D-01  7.4609584723072D-01 -5.2698986403163D-01
    21  2.0000000000000D-01  7.6217383448720D-01 -5.2590037526181D-01
    22  2.1000000000000D-01  7.7529777562627D-01 -5.2112398855273D-01
    23  2.2000000000000D-01  7.8546184762546D-01 -5.1264947833581D-01
    24  2.3000000000000D-01  7.9267720933276D-01 -5.0048641821867D-01
    25  2.4000000000000D-01  7.9697197687400D-01 -4.8466517155211D-01
    26  2.5000000000000D-01  7.9839110384258D-01 -4.6523676761811D-01
    27  2.6000000000000D-01  7.9699616642009D-01 -4.4227266358568D-01
    28  2.7000000000000D-01  7.9286505407814D-01 -4.1586439298065D-01
    29  2.8000000000000D-01  7.8609156701547D-01 -3.8612310201716D-01
    30  2.9000000000000D-01  7.7678492198699D-01 -3.5317897573875D-01
    31  3.0000000000000D-01  7.6506916868102D-01 -3.1718055651376D-01
    32  3.1000000000000D-01  7.5108251929478D-01 -2.7829395801913D-01
    33  3.2000000000000D-01  7.3497659444346D-01 -2.3670197842684D-01
    34  3.3000000000000D-01  7.1691558901298D-01 -1.9260311707350D-01
    35  3.4000000000000D-01  6.9707536202774D-01 -1.4621049944530D-01
    36  3.5000000000000D-01  6.7564245504974D-01 -9.7750715841258D-02
    37  3.6000000000000D-01  6.5281304405261D-01 -4.7462579588635D-02
    38  3.7000000000000D-01  6.2879183011946D-01  4.4041888318974D-03
    39  3.8000000000000D-01  6.0379087469613D-01  5.7590344936373D-02
    40  3.9000000000000D-01  5.7802838548787D-01  1.1182856342220D-01
    41  4.0000000000000D-01  5.5172745941593D-01  1.6684493375432D-01
    42  4.1000000000000D-01  5.2511478934854D-01  2.2236050016364D-01
    43  4.2000000000000D-01  4.9841934158640D-01  2.7809283775099D-01
    44  4.3000000000000D-01  4.7187101131394D-01  3.3375765611386D-01
    45  4.4000000000000D-01  4.4569926342232D-01  3.8907042167986D-01
    46  4.5000000000000D-01  4.2013176626708D-01  4.4374798974347D-01
    47  4.6000000000000D-01  3.9539302604052D-01  4.9751023706236D-01
    48  4.7000000000000D-01  3.7170302951519D-01  5.5008168577751D-01
    49  4.8000000000000D-01  3.4927590294934D-01  6.0119310938018D-01
    50  4.9000000000000D-01  3.2831859493649D-01  6.5058311145851D-01
    51  5.0000000000000D-01  3.0902959092864D-01  6.9799966801838D-01
    52  5.1000000000000D-01  2.9159766706681D-01  7.4320162428742D-01
    53  5.2000000000000D-01  2.7620069081052D-01  7.8596013707926D-01
    54  5.3000000000000D-01  2.6300447567384D-01  8.2606005401478D-01
    55  5.4000000000000D-01  2.5216169714462D-01  8.6330122117101D-01
    56  5.5000000000000D-01  2.4381087659189D-01  8.9749971105236D-01
    57  5.6000000000000D-01  2.3807543964914D-01  9.2848896315624D-01
    58  5.7000000000000D-01  2.3506285520478D-01  9.5612082982921D-01
    59  5.8000000000000D-01  2.3486386073196D-01  9.8026652058529D-01
    60  5.9000000000000D-01  2.3755177925436D-01  1.0008174385764D+00
    61  6.0000000000000D-01  2.4318193276978D-01  1.0176859034698D+00
    62  6.1000000000000D-01  2.5179115644672D-01  1.0308057555917D+00
    63  6.2000000000000D-01  2.6339741736632D-01  1.0401328368399D+00
    64  6.3000000000000D-01  2.7799954101524D-01  1.0456453445459D+00
    65  6.4000000000000D-01  2.9557704813493D-01  1.0473440551789D+00
    66  6.5000000000000D-01  3.1609010391452D-01  1.0452524155207D+00
    67  6.6000000000000D-01  3.3947958087454D-01  1.0394164997016D+00
    68  6.7000000000000D-01  3.6566723612970D-01  1.0299048312710D+00
    69  6.8000000000000D-01  3.9455600304973D-01  1.0168080702741D+00
    70  6.9000000000000D-01  4.2603039666034D-01  1.0002385661081D+00
    71  7.0000000000000D-01  4.5995703143862D-01  9.8032977775172D-01
    72  7.1000000000000D-01  4.9618524947496D-01  9.5723556377013D-01
    73  7.2000000000000D-01  5.3454785629053D-01  9.3112934531186D-01
    74  7.3000000000000D-01  5.7486196092605D-01  9.0220314611094D-01
    75  7.4000000000000D-01  6.1692991625522D-01  8.7066651429614D-01
    76  7.5000000000000D-01  6.6054035482892D-01  8.3674533157631D-01
    77  7.6000000000000D-01  7.0546931493213D-01  8.0068051611155D-01
    78  7.7000000000000D-01  7.5148145093363D-01  7.6272662609338D-01
    79  7.8000000000000D-01  7.9833132143679D-01  7.2315037173463D-01
    80  7.9000000000000D-01  8.4576474820029D-01  6.8222904400829D-01
    81  8.0000000000000D-01  8.9352023829444D-01  6.4024886906971D-01
    82  8.1000000000000D-01  9.4133046149842D-01  5.9750329784063D-01
    83  8.2000000000000D-01  9.8892377452328D-01  5.5429124072912D-01
    84  8.3000000000000D-01  1.0360257832763D+00  5.1091525789481D-01
    85  8.4000000000000D-01  1.0823609340614D+00  4.6767971584550D-01
    86  8.5000000000000D-01  1.1276541243420D+00  4.2488892146487D-01
    87  8.6000000000000D-01  1.1716323234823D+00  3.8284524481698D-01
    88  8.7000000000000D-01  1.2140261937271D+00  3.4184724225185D-01
    89  8.8000000000000D-01  1.2545717015848D+00  3.0218779144321D-01
    90  8.9000000000000D-01  1.2930117097478D+00  2.6415225002327D-01
    91  9.0000000000000D-01  1.3290975397061D+00  2.2801664944090D-01
    92  9.1000000000000D-01  1.3625904953060D+00  1.9404593555501D-01
    93  9.2000000000000D-01  1.3932633376548D+00  1.6249226728542D-01
    94  9.3000000000000D-01  1.4209017019885D+00  1.3359338438328D-01
    95  9.4000000000000D-01  1.4453054473985D+00  1.0757105504262D-01
    96  9.5000000000000D-01  1.4662899306480D+00  8.4629613667517D-02
    97  9.6000000000000D-01  1.4836871957090D+00  6.4954598628931D-02
    98  9.7000000000000D-01  1.4973470711056D+00  4.8711499297187D-02
    99  9.8000000000000D-01  1.5071381676557D+00  3.6044621021798D-02
   100  9.9000000000000D-01  1.5129487697704D+00  2.7076076055400D-02
   101  1.0000000000000D+00  1.5146876140794D+00  2.1904907683302D-02
   102  1.0100000000000D+00  1.5122845498176D+00  2.0606354019437D-02
   103  1.0200000000000D+00  1.5056910760797D+00  2.3231257129120D-02
   104  1.0300000000000D+00  1.4948807518286D+00  2.9805622200986D-02
   105  1.0400000000000D+00  1.4798494752839D+00  4.0330330607966D-02
   106  1.0500000000000D+00  1.4606156301259D+00  5.4781009728876D-02
   107  1.0600000000000D+00  1.4372200967890D+00  7.3108061399629D-02
   108  1.0700000000000D+00  1.4097261279341D+00  9.5236849888977D-02
   109  1.0800000000000D+00  1.3782190880482D+00  1.2106804927128D-01
   110  1.0900000000000D+00  1.3428060580186D+00  1.5047814899417D-01
   111  1.1000000000000D+00  1.3036153063422D+00  1.8332011547080D-01
   112  1.1100000000000D+00  1.2607956295711D+00  2.1942420640874D-01
   113  1.1200000000000D+00  1.2145155652998D+00  2.5859893374586D-01
   114  1.1300000000000D+00  1.1649624820057D+00  3.0063216987226D-01
   115  1.1400000000000D+00  1.1123415507587D+00  3.4529239097651D-01
   116  1.1500000000000D+00  1.0568746046930D+00  3.9233005031863D-01
   117  1.1600000000000D+00  9.9879889272988D-01  4.4147907352469D-01
   118  1.1700000000000D+00  9.3836573494228D-01  4.9245846692851D-01
   119  1.1800000000000D+00  8.7583908753138D-01  5.4497402930693D-01
   120  1.1900000000000D+00  8.1149402607210D-01  5.9872015654262D-01
   121  1.2000000000000D+00  7.4561515608167D-01  6.5338172828189D-01
   122  1.2100000000000D+00  6.7849496076739D-01  7.0863606471460D-01
   123  1.2200000000000D+00  6.1043209608492D-01  7.6415494128440D-01
   124  1.2300000000000D+00  5.4172964359590D-01  8.1960664872116D-01
   125  1.2400000000000D+00  4.7269333208617D-01  8.7465808523973D-01
   126  1.2500000000000D+00  4.0362973909324D-01  9.2897686754247D-01
   127  1.2600000000000D+00  3.3484448361632D-01  9.8223344712367D-01
   128  1.2700000000000D+00  2.6664042151341D-01  1.0341032181142D+00
   129  1.2800000000000D+00  1.9931585504382D-01  1.0842686029844D+00
   130  1.2900000000000D+00  1.3316276795514D-01  1.1324211024998D+00
   131  1.3000000000000D+00  6.8465097566754D-02  1.1782632962805D+00
   132  1.3100000000000D+00  5.4970548242350D-03  1.2215107809140D+00
   133  1.3200000000000D+00 -5.5478496718993D-02  1.2618940325933D+00
   134  1.3300000000000D+00 -1.1421159231223D-01  1.2991601816074D+00
   135  1.3400000000000D+00 -1.7046663808926D-01  1.3330746871881D+00
   136  1.3500000000000D+00 -2.2402379368810D-01  1.3634229007119D+00
   137  1.3600000000000D+00 -2.7468025646587D-01  1.3900115067248D+00
   138  1.3700000000000D+00 -3.2225143930544D-01  1.4126698323934D+00
   139  1.3800000000000D+00 -3.6657203306063D-01  1.4312510148382D+00
   140  1.3900000000000D+00 -4.0749694772287D-01  1.4456330194990D+00
   141  1.4000000000000D+00 -4.4490212533103D-01  1.4557195013893D+00
   142  1.4100000000000D+00 -4.7868521867542D-01  1.4614405023530D+00
   143  1.4200000000000D+00 -5.0876613263129D-01  1.4627529808056D+00
   144  1.4300000000000D+00 -5.3508742205132D-01  1.4596411669279D+00
   145  1.4400000000000D+00 -5.5761454547494D-01  1.4521167427260D+00
   146  1.4500000000000D+00 -5.7633597151418D-01  1.4402188434687D+00
   147  1.4600000000000D+00 -5.9126313657534D-01  1.4240138791935D+00
   148  1.4700000000000D+00 -6.0243025576292D-01  1.4035951788078D+00
   149  1.4800000000000D+00 -6.0989398467505D-01  1.3790824543335D+00
   150  1.4900000000000D+00 -6.1373293761103D-01  1.3506210922437D+00
   151  1.5000000000000D+00 -6.1404706166763D-01  1.3183812715689D+00
   152  1.5100000000000D+00 -6.1095687269116D-01  1.2825569162539D+00
   153  1.5200000000000D+00 -6.0460255677551D-01  1.2433644865021D+00
   154  1.5300000000000D+00 -5.9514294219717D-01  1.2010416153001D+00
   155  1.5400000000000D+00 -5.8275435004312D-01  1.1558456003205D+00
   156  1.5500000000000D+00 -5.6762932739966D-01  1.1080517561800D+00
   157  1.5600000000000D+00 -5.4997527490734D-01  1.0579516409942D+00
   158  1.5700000000000D+00 -5.3001297302764D-01  1.0058511644377D+00
   159  1.5800000000000D+00 -5.0797501928095D-01  9.5206858874426D-01
   160  1.5900000000000D+00 -4.8410418655323D-01  8.9693244415863D-01
   161  1.6000000000000D+00 -4.5865172033922D-01  8.4077940842909D-01
   162  1.6100000000000D+00 -4.3187551876127D-01  7.8395184551137D-01
   163  1.6200000000000D+00 -4.0403835157154D-01  7.2679569215019D-01
   164  1.6300000000000D+00 -3.7540613081760D-01  6.6965879700719D-01
   165  1.6400000000000D+00 -3.4624617015565D-01  6.1288911810857D-01
   166  1.6500000000000D+00 -3.1682551388798D-01  5.5683315436100D-01
   167  1.6600000000000D+00 -2.8740918416620D-01  5.0183395304476D-01
   168  1.6700000000000D+00 -2.5825837545319D-01  4.4822873035345D-01
   169  1.6800000000000D+00 -2.2962871767288D-01  3.9634676150795D-01
   170  1.6900000000000D+00 -2.0176857317171D-01  3.4650731422216D-01
   171  1.7000000000000D+00 -1.7491737767919D-01  2.9901760486289D-01
   172  1.7100000000000D+00 -1.4930404142254D-01  2.5417084364552D-01
   173  1.7200000000000D+00 -1.2514541892356D-01  2.1224435930335D-01
   174  1.7300000000000D+00 -1.0264485583166D-01  1.7349781986191D-01
   175  1.7400000000000D+00 -8.1990824321839D-02  1.3817156223613D-01
   176  1.7500000000000D+00 -6.3355653109619D-02  1.0648503796272D-01
   177  1.7600000000000D+00 -4.6902042586096D-02  7.8648177364675D-02
   178  1.7700000000000D+00 -3.2755874415636D-02  5.4816575797335D-02
   179  1.7800000000000D+00 -2.0986282940789D-02  3.5058845607805D-02
   180  1.7900000000000D+00 -1.1738954742917D-02  1.9578612905670D-02
   181  1.8000000000000D+00 -5.2851681048359D-03  8.7959768999346D-03
   182  1.8100000000000D+00 -1.5924232486081D-03  2.6345438760891D-03
   183  1.8200000000000D+00 -4.4331630200251D-06 -9.2608767189623D-06
   184  1.8300000000000D+00  2.8596437129408D-04 -4.8484089446645D-04
   185  1.8400000000000D+00  4.2022481175641D-05 -7.0816959020102D-05
   186  1.8500000000000D+00 -9.2495585012773D-05  1.5577424465614D-04
   187  1.8600000000000D+00 -4.0461910170720D-05  6.8056818227523D-05
   188  1.8700000000000D+00  1.4166718359621D-05 -2.3976856765608D-05
   189  1.8800000000000D+00  1.1924995057093D-05 -2.0165730543241D-05
   190  1.8900000000000D+00  6.0961739930379D-08 -7.2913363113459D-08
   191  1.9000000000000D+00  9.1567422170163D-08 -1.0951932654287D-07
   192  1.9100000000000D+00  0.0000000000000D+00  0.0000000000000D+00
   193  1.9200000000000D+00  0.0000000000000D+00  0.0000000000000D+00
   194  1.9300000000000D+00  0.0000000000000D+00  0.0000000000000D+00
   195  1.9400000000000D+00  0.0000000000000D+00  0.0000000000000D+00
   196  1.9500000000000D+00  0.0000000000000D+00  0.0000000000000D+00
   197  1.9600000000000D+00  0.0000000000000D+00  0.0000000000000D+00
   198  1.9700000000000D+00  0.0000000000000D+00  0.0000000000000D+00
   199  1.9800000000000D+00  0.0000000000000D+00  0.0000000000000D+00
   200  1.9900000000000D+00  0.0000000000000D+00  0.0000000000000D+00
   201  2.0000000000000D+00  0.0000000000000D+00  0.0000000000000D+00
   202  2.0100000000000D+00  0.0000000000000D+00  0.0000000000000D+00
   203  2.0200000000000D+00  0.0000000000000D+00  0.0000000000000D+00
   204  2.0300000000000D+00  0.0000000000000D+00  0.0000000000000D+00
   205  2.0400000000000D+00  0.0000000000000D+00  0.0000000000000D+00
   206  2.0500000000000D+00  0.0000000000000D+00  0.0000000000000D+00
   207  2.0600000000000D+00  0.0000000000000D+00  0.0000000000000D+00
   208  2.0700000000000D+00  0.0000000000000D+00  0.0000000000000D+00
   209  2.0800000000000D+00  0.0000000000000D+00  0.0000000000000D+00
   210  2.0900000000000D+00  0.0000000000000D+00  0.0000000000000D+00
   211  2.1000000000000D+00  0.0000000000000D+00  0.0000000000000D+00
   212  2.1100000000000D+00  0.0000000000000D+00  0.0000000000000D+00
   213  2.1200000000000D+00  0.0000000000000D+00  0.0000000000000D+00
   214  2.1300000000000D+00  0.0000000000000D+00  0.0000000000000D+00
   215  2.1400000000000D+00  0.0000000000000D+00  0.0000000000000D+00
   216  2.1500000000000D+00  0.0000000000000D+00  0.0000000000000D+00
   217  2.1600000000000D+00  0.0000000000000D+00  0.0000000000000D+00
   218  2.1700000000000D+00  0.0000000000000D+00  0.0000000000000D+00
   219  2.1800000000000D+00  0.0000000000000D+00  0.0000000000000D+00
   220  2.1900000000000D+00  0.0000000000000D+00  0.0000000000000D+00
   221  2.2000000000000D+00  0.0000000000000D+00  0.0000000000000D+00
   222  2.2100000000000D+00  0.0000000000000D+00  0.0000000000000D+00
   223  2.2200000000000D+00  0.0000000000000D+00  0.0000000000000D+00
   224  2.2300000000000D+00  0.0000000000000D+00  0.0000000000000D+00
   225  2.2400000000000D+00  0.0000000000000D+00  0.0000000000000D+00
   226  2.2500000000000D+00  0.0000000000000D+00  0.0000000000000D+00
   227  2.2600000000000D+00  0.0000000000000D+00  0.0000000000000D+00
   228  2.2700000000000D+00  0.0000000000000D+00  0.0000000000000D+00
   229  2.2800000000000D+00  0.0000000000000D+00  0.0000000000000D+00
   230  2.2900000000000D+00  0.0000000000000D+00  0.0000000000000D+00
   231  2.3000000000000D+00  0.0000000000000D+00  0.0000000000000D+00
   232  2.3100000000000D+00  0.0000000000000D+00  0.0000000000000D+00
   233  2.3200000000000D+00  0.0000000000000D+00  0.0000000000000D+00
   234  2.3300000000000D+00  0.0000000000000D+00  0.0000000000000D+00
   235  2.3400000000000D+00  0.0000000000000D+00  0.0000000000000D+00
   236  2.3500000000000D+00  0.0000000000000D+00  0.0000000000000D+00
   237  2.3600000000000D+00  0.0000000000000D+00  0.0000000000000D+00
   238  2.3700000000000D+00  0.0000000000000D+00  0.0000000000000D+00
   239  2.3800000000000D+00  0.0000000000000D+00  0.0000000000000D+00
   240  2.3900000000000D+00  0.0000000000000D+00  0.0000000000000D+00
   241  2.4000000000000D+00  0.0000000000000D+00  0.0000000000000D+00
   242  2.4100000000000D+00  0.0000000000000D+00  0.0000000000000D+00
   243  2.4200000000000D+00  0.0000000000000D+00  0.0000000000000D+00
   244  2.4300000000000D+00  0.0000000000000D+00  0.0000000000000D+00
   245  2.4400000000000D+00  0.0000000000000D+00  0.0000000000000D+00
   246  2.4500000000000D+00  0.0000000000000D+00  0.0000000000000D+00
   247  2.4600000000000D+00  0.0000000000000D+00  0.0000000000000D+00
   248  2.4700000000000D+00  0.0000000000000D+00  0.0000000000000D+00
   249  2.4800000000000D+00  0.0000000000000D+00  0.0000000000000D+00
   250  2.4900000000000D+00  0.0000000000000D+00  0.0000000000000D+00
   251  2.5000000000000D+00  0.0000000000000D+00  0.0000000000000D+00
   252  2.5100000000000D+00  0.0000000000000D+00  0.0000000000000D+00
   253  2.5200000000000D+00  0.0000000000000D+00  0.0000000000000D+00
   254  2.5300000000000D+00  0.0000000000000D+00  0.0000000000000D+00
   255  2.5400000000000D+00  0.0000000000000D+00  0.0000000000000D+00
   256  2.5500000000000D+00  0.0000000000000D+00  0.0000000000000D+00
   257  2.5600000000000D+00  0.0000000000000D+00  0.0000000000000D+00
   258  2.5700000000000D+00  0.0000000000000D+00  0.0000000000000D+00
   259  2.5800000000000D+00  0.0000000000000D+00  0.0000000000000D+00
   260  2.5900000000000D+00  0.0000000000000D+00  0.0000000000000D+00
   261  2.6000000000000D+00  0.0000000000000D+00  0.0000000000000D+00
   262  2.6100000000000D+00  0.0000000000000D+00  0.0000000000000D+00
   263  2.6200000000000D+00  0.0000000000000D+00  0.0000000000000D+00
   264  2.6300000000000D+00  0.0000000000000D+00  0.0000000000000D+00
   265  2.6400000000000D+00  0.0000000000000D+00  0.0000000000000D+00
   266  2.6500000000000D+00  0.0000000000000D+00  0.0000000000000D+00
   267  2.6600000000000D+00  0.0000000000000D+00  0.0000000000000D+00
   268  2.6700000000000D+00  0.0000000000000D+00  0.0000000000000D+00
   269  2.6800000000000D+00  0.0000000000000D+00  0.0000000000000D+00
   270  2.6900000000000D+00  0.0000000000000D+00  0.0000000000000D+00
   271  2.7000000000000D+00  0.0000000000000D+00  0.0000000000000D+00
   272  2.7100000000000D+00  0.0000000000000D+00  0.0000000000000D+00
   273  2.7200000000000D+00  0.0000000000000D+00  0.0000000000000D+00
   274  2.7300000000000D+00  0.0000000000000D+00  0.0000000000000D+00
   275  2.7400000000000D+00  0.0000000000000D+00  0.0000000000000D+00
   276  2.7500000000000D+00  0.0000000000000D+00  0.0000000000000D+00
   277  2.7600000000000D+00  0.0000000000000D+00  0.0000000000000D+00
   278  2.7700000000000D+00  0.0000000000000D+00  0.0000000000000D+00
   279  2.7800000000000D+00  0.0000000000000D+00  0.0000000000000D+00
   280  2.7900000000000D+00  0.0000000000000D+00  0.0000000000000D+00
   281  2.8000000000000D+00  0.0000000000000D+00  0.0000000000000D+00
   282  2.8100000000000D+00  0.0000000000000D+00  0.0000000000000D+00
   283  2.8200000000000D+00  0.0000000000000D+00  0.0000000000000D+00
   284  2.8300000000000D+00  0.0000000000000D+00  0.0000000000000D+00
   285  2.8400000000000D+00  0.0000000000000D+00  0.0000000000000D+00
   286  2.8500000000000D+00  0.0000000000000D+00  0.0000000000000D+00
   287  2.8600000000000D+00  0.0000000000000D+00  0.0000000000000D+00
   288  2.8700000000000D+00  0.0000000000000D+00  0.0000000000000D+00
   289  2.8800000000000D+00  0.0000000000000D+00  0.0000000000000D+00
   290  2.8900000000000D+00  0.0000000000000D+00  0.0000000000000D+00
   291  2.9000000000000D+00  0.0000000000000D+00  0.0000000000000D+00
   292  2.9100000000000D+00  0.0000000000000D+00  0.0000000000000D+00
   293  2.9200000000000D+00  0.0000000000000D+00  0.0000000000000D+00
   294  2.9300000000000D+00  0.0000000000000D+00  0.0000000000000D+00
   295  2.9400000000000D+00  0.0000000000000D+00  0.0000000000000D+00
   296  2.9500000000000D+00  0.0000000000000D+00  0.0000000000000D+00
   297  2.9600000000000D+00  0.0000000000000D+00  0.0000000000000D+00
   298  2.9700000000000D+00  0.0000000000000D+00  0.0000000000000D+00
   299  2.9800000000000D+00  0.0000000000000D+00  0.0000000000000D+00
   300  2.9900000000000D+00  0.0000000000000D+00  0.0000000000000D+00
   301  3.0000000000000D+00  0.0000000000000D+00  0.0000000000000D+00
   302  3.0100000000000D+00  0.0000000000000D+00  0.0000000000000D+00
   303  3.0200000000000D+00  0.0000000000000D+00  0.0000000000000D+00
   304  3.0300000000000D+00  0.0000000000000D+00  0.0000000000000D+00
   305  3.0400000000000D+00  0.0000000000000D+00  0.0000000000000D+00
   306  3.0500000000000D+00  0.0000000000000D+00  0.0000000000000D+00
   307  3.0600000000000D+00  0.0000000000000D+00  0.0000000000000D+00
   308  3.0700000000000D+00  0.0000000000000D+00  0.0000000000000D+00
   309  3.0800000000000D+00  0.0000000000000D+00  0.0000000000000D+00
   310  3.0900000000000D+00  0.0000000000000D+00  0.0000000000000D+00
   311  3.1000000000000D+00  0.0000000000000D+00  0.0000000000000D+00
   312  3.1100000000000D+00  0.0000000000000D+00  0.0000000000000D+00
   313  3.1200000000000D+00  0.0000000000000D+00  0.0000000000000D+00
   314  3.1300000000000D+00  0.0000000000000D+00  0.0000000000000D+00
   315  3.1400000000000D+00  0.0000000000000D+00  0.0000000000000D+00
   316  3.1500000000000D+00  0.0000000000000D+00  0.0000000000000D+00
   317  3.1600000000000D+00  0.0000000000000D+00  0.0000000000000D+00
   318  3.1700000000000D+00  0.0000000000000D+00  0.0000000000000D+00
   319  3.1800000000000D+00  0.0000000000000D+00  0.0000000000000D+00
   320  3.1900000000000D+00  0.0000000000000D+00  0.0000000000000D+00
   321  3.2000000000000D+00  0.0000000000000D+00  0.0000000000000D+00
   322  3.2100000000000D+00  0.0000000000000D+00  0.0000000000000D+00
   323  3.2200000000000D+00  0.0000000000000D+00  0.0000000000000D+00
   324  3.2300000000000D+00  0.0000000000000D+00  0.0000000000000D+00
   325  3.2400000000000D+00  0.0000000000000D+00  0.0000000000000D+00
   326  3.2500000000000D+00  0.0000000000000D+00  0.0000000000000D+00
   327  3.2600000000000D+00  0.0000000000000D+00  0.0000000000000D+00
   328  3.2700000000000D+00  0.0000000000000D+00  0.0000000000000D+00
   329  3.2800000000000D+00  0.0000000000000D+00  0.0000000000000D+00
   330  3.2900000000000D+00  0.0000000000000D+00  0.0000000000000D+00
   331  3.3000000000000D+00  0.0000000000000D+00  0.0000000000000D+00
   332  3.3100000000000D+00  0.0000000000000D+00  0.0000000000000D+00
   333  3.3200000000000D+00  0.0000000000000D+00  0.0000000000000D+00
   334  3.3300000000000D+00  0.0000000000000D+00  0.0000000000000D+00
   335  3.3400000000000D+00  0.0000000000000D+00  0.0000000000000D+00
   336  3.3500000000000D+00  0.0000000000000D+00  0.0000000000000D+00
   337  3.3600000000000D+00  0.0000000000000D+00  0.0000000000000D+00
   338  3.3700000000000D+00  0.0000000000000D+00  0.0000000000000D+00
   339  3.3800000000000D+00  0.0000000000000D+00  0.0000000000000D+00
   340  3.3900000000000D+00  0.0000000000000D+00  0.0000000000000D+00
   341  3.4000000000000D+00  0.0000000000000D+00  0.0000000000000D+00
   342  3.4100000000000D+00  0.0000000000000D+00  0.0000000000000D+00
   343  3.4200000000000D+00  0.0000000000000D+00  0.0000000000000D+00
   344  3.4300000000000D+00  0.0000000000000D+00  0.0000000000000D+00
   345  3.4400000000000D+00  0.0000000000000D+00  0.0000000000000D+00
   346  3.4500000000000D+00  0.0000000000000D+00  0.0000000000000D+00
   347  3.4600000000000D+00  0.0000000000000D+00  0.0000000000000D+00
   348  3.4700000000000D+00  0.0000000000000D+00  0.0000000000000D+00
   349  3.4800000000000D+00  0.0000000000000D+00  0.0000000000000D+00
   350  3.4900000000000D+00  0.0000000000000D+00  0.0000000000000D+00
   351  3.5000000000000D+00  0.0000000000000D+00  0.0000000000000D+00
   352  3.5100000000000D+00  0.0000000000000D+00  0.0000000000000D+00
   353  3.5200000000000D+00  0.0000000000000D+00  0.0000000000000D+00
   354  3.5300000000000D+00  0.0000000000000D+00  0.0000000000000D+00
   355  3.5400000000000D+00  0.0000000000000D+00  0.0000000000000D+00
   356  3.5500000000000D+00  0.0000000000000D+00  0.0000000000000D+00
   357  3.5600000000000D+00  0.0000000000000D+00  0.0000000000000D+00
   358  3.5700000000000D+00  0.0000000000000D+00  0.0000000000000D+00
   359  3.5800000000000D+00  0.0000000000000D+00  0.0000000000000D+00
   360  3.5900000000000D+00  0.0000000000000D+00  0.0000000000000D+00
   361  3.6000000000000D+00  0.0000000000000D+00  0.0000000000000D+00
   362  3.6100000000000D+00  0.0000000000000D+00  0.0000000000000D+00
   363  3.6200000000000D+00  0.0000000000000D+00  0.0000000000000D+00
   364  3.6300000000000D+00  0.0000000000000D+00  0.0000000000000D+00
   365  3.6400000000000D+00  0.0000000000000D+00  0.0000000000000D+00
   366  3.6500000000000D+00  0.0000000000000D+00  0.0000000000000D+00
   367  3.6600000000000D+00  0.0000000000000D+00  0.0000000000000D+00
   368  3.6700000000000D+00  0.0000000000000D+00  0.0000000000000D+00
   369  3.6800000000000D+00  0.0000000000000D+00  0.0000000000000D+00
   370  3.6900000000000D+00  0.0000000000000D+00  0.0000000000000D+00
   371  3.7000000000000D+00  0.0000000000000D+00  0.0000000000000D+00
   372  3.7100000000000D+00  0.0000000000000D+00  0.0000000000000D+00
   373  3.7200000000000D+00  0.0000000000000D+00  0.0000000000000D+00
   374  3.7300000000000D+00  0.0000000000000D+00  0.0000000000000D+00
   375  3.7400000000000D+00  0.0000000000000D+00  0.0000000000000D+00
   376  3.7500000000000D+00  0.0000000000000D+00  0.0000000000000D+00
   377  3.7600000000000D+00  0.0000000000000D+00  0.0000000000000D+00
   378  3.7700000000000D+00  0.0000000000000D+00  0.0000000000000D+00
   379  3.7800000000000D+00  0.0000000000000D+00  0.0000000000000D+00
   380  3.7900000000000D+00  0.0000000000000D+00  0.0000000000000D+00
   381  3.8000000000000D+00  0.0000000000000D+00  0.0000000000000D+00
   382  3.8100000000000D+00  0.0000000000000D+00  0.0000000000000D+00
   383  3.8200000000000D+00  0.0000000000000D+00  0.0000000000000D+00
   384  3.8300000000000D+00  0.0000000000000D+00  0.0000000000000D+00
   385  3.8400000000000D+00  0.0000000000000D+00  0.0000000000000D+00
   386  3.8500000000000D+00  0.0000000000000D+00  0.0000000000000D+00
   387  3.8600000000000D+00  0.0000000000000D+00  0.0000000000000D+00
   388  3.8700000000000D+00  0.0000000000000D+00  0.0000000000000D+00
   389  3.8800000000000D+00  0.0000000000000D+00  0.0000000000000D+00
   390  3.8900000000000D+00  0.0000000000000D+00  0.0000000000000D+00
   391  3.9000000000000D+00  0.0000000000000D+00  0.0000000000000D+00
   392  3.9100000000000D+00  0.0000000000000D+00  0.0000000000000D+00
   393  3.9200000000000D+00  0.0000000000000D+00  0.0000000000000D+00
   394  3.9300000000000D+00  0.0000000000000D+00  0.0000000000000D+00
   395  3.9400000000000D+00  0.0000000000000D+00  0.0000000000000D+00
   396  3.9500000000000D+00  0.0000000000000D+00  0.0000000000000D+00
   397  3.9600000000000D+00  0.0000000000000D+00  0.0000000000000D+00
   398  3.9700000000000D+00  0.0000000000000D+00  0.0000000000000D+00
   399  3.9800000000000D+00  0.0000000000000D+00  0.0000000000000D+00
   400  3.9900000000000D+00  0.0000000000000D+00  0.0000000000000D+00
   401  4.0000000000000D+00  0.0000000000000D+00  0.0000000000000D+00
   402  4.0100000000000D+00  0.0000000000000D+00  0.0000000000000D+00
   403  4.0200000000000D+00  0.0000000000000D+00  0.0000000000000D+00
   404  4.0300000000000D+00  0.0000000000000D+00  0.0000000000000D+00
   405  4.0400000000000D+00  0.0000000000000D+00  0.0000000000000D+00
   406  4.0500000000000D+00  0.0000000000000D+00  0.0000000000000D+00
   407  4.0600000000000D+00  0.0000000000000D+00  0.0000000000000D+00
   408  4.0700000000000D+00  0.0000000000000D+00  0.0000000000000D+00
   409  4.0800000000000D+00  0.0000000000000D+00  0.0000000000000D+00
   410  4.0900000000000D+00  0.0000000000000D+00  0.0000000000000D+00
   411  4.1000000000000D+00  0.0000000000000D+00  0.0000000000000D+00
   412  4.1100000000000D+00  0.0000000000000D+00  0.0000000000000D+00
   413  4.1200000000000D+00  0.0000000000000D+00  0.0000000000000D+00
   414  4.1300000000000D+00  0.0000000000000D+00  0.0000000000000D+00
   415  4.1400000000000D+00  0.0000000000000D+00  0.0000000000000D+00
   416  4.1500000000000D+00  0.0000000000000D+00  0.0000000000000D+00
   417  4.1600000000000D+00  0.0000000000000D+00  0.0000000000000D+00
   418  4.1700000000000D+00  0.0000000000000D+00  0.0000000000000D+00
   419  4.1800000000000D+00  0.0000000000000D+00  0.0000000000000D+00
   420  4.1900000000000D+00  0.0000000000000D+00  0.0000000000000D+00
   421  4.2000000000000D+00  0.0000000000000D+00  0.0000000000000D+00
   422  4.2100000000000D+00  0.0000000000000D+00  0.0000000000000D+00