Sb    ONCVPSP-3.3.0  r_core=   1.30295   1.30295   1.50346
     51.0000     23.0000      220408    zatom,zion,pspd
     8       2   2     4   600     0    pspcod,pspxc,lmax,lloc,mmax,r2well
  5.99000000  0.00000000  0.00000000    rchrg fchrg qchrg
     2     2     2     0     0    nproj
     1     1           extension_switch
   0                         9.5262929196401D+00 -4.9636258695099D-01
     1  0.0000000000000D+00 -2.1200474709104D-10 -1.2230496282406D-08
     2  1.0000000000000D-02  8.8204760959687D-02  7.6798997608711D-02
     3  2.0000000000000D-02  1.7616332325708D-01  1.5282593506494D-01
     4  3.0000000000000D-02  2.6363038796747D-01  2.2731933975296D-01
     5  4.0000000000000D-02  3.5036245068115D-01  2.9953873554230D-01
     6  5.0000000000000D-02  4.3611868641594D-01  3.6877469775775D-01
     7  6.0000000000000D-02  5.2066181986968D-01  4.3435838512038D-01
     8  7.0000000000000D-02  6.0375897638004D-01  4.9567038897677D-01
     9  8.0000000000000D-02  6.8518250917077D-01  5.5214875236458D-01
    10  9.0000000000000D-02  7.6471079872180D-01  6.0329602633672D-01
    11  1.0000000000000D-01  8.4212902040042D-01  6.4868524822160D-01
    12  1.1000000000000D-01  9.1722987682709D-01  6.8796474582316D-01
    13  1.2000000000000D-01  9.8981429181697D-01  7.2086169261859D-01
    14  1.3000000000000D-01  1.0596920631300D+00  7.4718436141578D-01
    15  1.4000000000000D-01  1.1266824716725D+00  7.6682304728675D-01
    16  1.5000000000000D-01  1.1906148452153D+00  7.7974965447746D-01
    17  1.6000000000000D-01  1.2513290751169D+00  7.8601596597802D-01
    18  1.7000000000000D-01  1.3086760849659D+00  7.8575063808968D-01
    19  1.8000000000000D-01  1.3625182504671D+00  7.7915498521472D-01
    20  1.9000000000000D-01  1.4127297702934D+00  7.6649764180855D-01
    21  2.0000000000000D-01  1.4591969880018D+00  7.4810820857174D-01
    22  2.1000000000000D-01  1.5018186654532D+00  7.2437000815377D-01
    23  2.2000000000000D-01  1.5405062084928D+00  6.9571209155294D-01
    24  2.3000000000000D-01  1.5751838459192D+00  6.6260064972999D-01
    25  2.4000000000000D-01  1.6057887630050D+00  6.2552999545586D-01
    26  2.5000000000000D-01  1.6322711910191D+00  5.8501328788061D-01
    27  2.6000000000000D-01  1.6545944543450D+00  5.4157317659564D-01
    28  2.7000000000000D-01  1.6727349768834D+00  4.9573254296795D-01
    29  2.8000000000000D-01  1.6866822494779D+00  4.4800551422365D-01
    30  2.9000000000000D-01  1.6964387601035D+00  3.9888892017046D-01
    31  3.0000000000000D-01  1.7020198885195D+00  3.4885435366242D-01
    32  3.1000000000000D-01  1.7034537670050D+00  2.9834098407070D-01
    33  3.2000000000000D-01  1.7007811086787D+00  2.4774925832695D-01
    34  3.3000000000000D-01  1.6940550047549D+00  1.9743560681248D-01
    35  3.4000000000000D-01  1.6833406919112D+00  1.4770825177332D-01
    36  3.5000000000000D-01  1.6687152907479D+00  9.8824194400956D-02
    37  3.6000000000000D-01  1.6502675161073D+00  5.0987433615752D-02
    38  3.7000000000000D-01  1.6280973598084D+00  4.3484453422306D-03
    39  3.8000000000000D-01  1.6023157461327D+00 -4.0995073881351D-02
    40  3.9000000000000D-01  1.5730441601931D+00 -8.4996220306749D-02
    41  4.0000000000000D-01  1.5404142491216D+00 -1.2765569970015D-01
    42  4.1000000000000D-01  1.5045673958472D+00 -1.6901751795820D-01
    43  4.2000000000000D-01  1.4656542650901D+00 -2.0916363928984D-01
    44  4.3000000000000D-01  1.4238343210965D+00 -2.4820772713823D-01
    45  4.4000000000000D-01  1.3792753165756D+00 -2.8628810249230D-01
    46  4.5000000000000D-01  1.3321527522794D+00 -3.2356007129976D-01
    47  4.6000000000000D-01  1.2826493067020D+00 -3.6018778699716D-01
    48  4.7000000000000D-01  1.2309542354591D+00 -3.9633582541349D-01
    49  4.8000000000000D-01  1.1772627400470D+00 -4.3216065723834D-01
    50  4.9000000000000D-01  1.1217753058786D+00 -4.6780220767925D-01
    51  5.0000000000000D-01  1.0646970097402D+00 -5.0337569374285D-01
    52  5.1000000000000D-01  1.0062367971185D+00 -5.3896392669082D-01
    53  5.2000000000000D-01  9.4660673019962D-01 -5.7461026066530D-01
    54  5.3000000000000D-01  8.8602120773695D-01 -6.1031235830237D-01
    55  5.4000000000000D-01  8.2469615842700D-01 -6.4601693050374D-01
    56  5.5000000000000D-01  7.6284820990040D-01 -6.8161559066268D-01
    57  5.6000000000000D-01  7.0069383593414D-01 -7.1694194370915D-01
    58  5.7000000000000D-01  6.3844848500433D-01 -7.5177000783353D-01
    59  5.8000000000000D-01  5.7632569382152D-01 -7.8581404188310D-01
    60  5.9000000000000D-01  5.1453619000997D-01 -8.1872982479348D-01
    61  6.0000000000000D-01  4.5328698860016D-01 -8.5011740533329D-01
    62  6.1000000000000D-01  3.9278048748688D-01 -8.7952531160178D-01
    63  6.2000000000000D-01  3.3321356745703D-01 -9.0645618036453D-01
    64  6.3000000000000D-01  2.7477670279443D-01 -9.3037373742573D-01
    65  6.4000000000000D-01  2.1765308882140D-01 -9.5071103179324D-01
    66  6.5000000000000D-01  1.6201779302122D-01 -9.6687979949138D-01
    67  6.6000000000000D-01  1.0803693659789D-01 -9.7828080771474D-01
    68  6.7000000000000D-01  5.5866913459783D-02 -9.8431500709417D-01
    69  6.8000000000000D-01  5.6536536540568D-03 -9.8439529983581D-01
    70  6.9000000000000D-01 -4.2468061773804D-02 -9.7795871466866D-01
    71  7.0000000000000D-01 -8.8375227674465D-02 -9.6447876619698D-01
    72  7.1000000000000D-01 -1.3195717687598D-01 -9.4347776693037D-01
    73  7.2000000000000D-01 -1.7311607124224D-01 -9.1453885500757D-01
    74  7.3000000000000D-01 -2.1176731595701D-01 -8.7731749968703D-01
    75  7.4000000000000D-01 -2.4783989184128D-01 -8.3155225013140D-01
    76  7.5000000000000D-01 -2.8127660116627D-01 -7.7707450090866D-01
    77  7.6000000000000D-01 -3.1203422316732D-01 -7.1381705984569D-01
    78  7.7000000000000D-01 -3.4008357628963D-01 -6.4182132030556D-01
    79  7.8000000000000D-01 -3.6540948509424D-01 -5.6124286036990D-01
    80  7.9000000000000D-01 -3.8801065071167D-01 -4.7235531548509D-01
    81  8.0000000000000D-01 -4.0789942474041D-01 -3.7555239856971D-01
    82  8.1000000000000D-01 -4.2510148752752D-01 -2.7134797172177D-01
    83  8.2000000000000D-01 -4.3965543283802D-01 -1.6037410641226D-01
    84  8.3000000000000D-01 -4.5161226198771D-01 -4.3377103401329D-02
    85  8.4000000000000D-01 -4.6103479157513D-01  7.8788520719402D-02
    86  8.5000000000000D-01 -4.6799697998268D-01  2.0516803720422D-01
    87  8.6000000000000D-01 -4.7258317880850D-01  3.3471641969770D-01
    88  8.7000000000000D-01 -4.7488731632374D-01  4.6631005479359D-01
    89  8.8000000000000D-01 -4.7501202090878D-01  5.9876009960629D-01
    90  8.9000000000000D-01 -4.7306769319261D-01  7.3082730519111D-01
    91  9.0000000000000D-01 -4.6917153628715D-01  8.6123809508651D-01
    92  9.1000000000000D-01 -4.6344655406258D-01  9.8870166184086D-01
    93  9.2000000000000D-01 -4.5602052783702D-01  1.1119278216865D+00
    94  9.3000000000000D-01 -4.4702498214791D-01  1.2296453490329D+00
    95  9.4000000000000D-01 -4.3659415042628D-01  1.3406204983190D+00
    96  9.5000000000000D-01 -4.2486395140006D-01  1.4436754117650D+00
    97  9.6000000000000D-01 -4.1197098691068D-01  1.5377061074854D+00
    98  9.7000000000000D-01 -3.9805157153575D-01  1.6216997436793D+00
    99  9.8000000000000D-01 -3.8324080397142D-01  1.6947508611641D+00
   100  9.9000000000000D-01 -3.6767168954775D-01  1.7560763183260D+00
   101  1.0000000000000D+00 -3.5147432253210D-01  1.8050286495316D+00
   102  1.0100000000000D+00 -3.3477513601666D-01  1.8411076004036D+00
   103  1.0200000000000D+00 -3.1769622627341D-01  1.8639696184273D+00
   104  1.0300000000000D+00 -3.0035475733167D-01  1.8734351099579D+00
   105  1.0400000000000D+00 -2.8286245043112D-01  1.8694933077434D+00
   106  1.0500000000000D+00 -2.6532516176953D-01  1.8523046309809D+00
   107  1.0600000000000D+00 -2.4784255066717D-01  1.8222004608408D+00
   108  1.0700000000000D+00 -2.3050783900511D-01  1.7796802950246D+00
   109  1.0800000000000D+00 -2.1340766146888D-01  1.7254062881574D+00
   110  1.0900000000000D+00 -1.9662200475724D-01  1.6601952303832D+00
   111  1.1000000000000D+00 -1.8022423270411D-01  1.5850080572518D+00
   112  1.1100000000000D+00 -1.6428119291930D-01  1.5009370297029D+00
   113  1.1200000000000D+00 -1.4885339956691D-01  1.4091907568124D+00
   114  1.1300000000000D+00 -1.3399528558258D-01  1.3110772797508D+00
   115  1.1400000000000D+00 -1.1975551678802D-01  1.2079854651142D+00
   116  1.1500000000000D+00 -1.0617735941819D-01  1.1013649892996D+00
   117  1.1600000000000D+00 -9.3299091967250D-02  9.9270521737730D-01
   118  1.1700000000000D+00 -8.1154451484695D-02  8.8351330811335D-01
   119  1.1800000000000D+00 -6.9773104124950D-02  7.7529188914981D-01
   120  1.1900000000000D+00 -5.9181129506838D-02  6.6951665608401D-01
   121  1.2000000000000D+00 -4.9401508237986D-02  5.6761425687316D-01
   122  1.2100000000000D+00 -4.0454602037099D-02  4.7094082171296D-01
   123  1.2200000000000D+00 -3.2358616246346D-02  3.8076148640636D-01
   124  1.2300000000000D+00 -2.5130034702249D-02  2.9823125168742D-01
   125  1.2400000000000D+00 -1.8784017549297D-02  2.2437750017631D-01
   126  1.2500000000000D+00 -1.3334753500289D-02  1.6008446053198D-01
   127  1.2600000000000D+00 -8.7970431745574D-03  1.0609582008798D-01
   128  1.2700000000000D+00 -5.1813901484939D-03  6.2940034778299D-02
   129  1.2800000000000D+00 -2.4856975649447D-03  3.0804049392772D-02
   130  1.2900000000000D+00 -7.8792126295624D-04  1.0778676026099D-02
   131  1.3000000000000D+00 -4.2282838207115D-05  2.0679646791618D-03
   132  1.3100000000000D+00  7.9761864841430D-05 -1.0159214571698D-04
   133  1.3200000000000D+00 -8.0484230614509D-06  3.2139969986169D-05
   134  1.3300000000000D+00 -1.5412706822633D-05  7.7259999254399D-05
   135  1.3400000000000D+00  3.9548190866937D-06 -1.3164770443994D-05
   136  1.3500000000000D+00  3.2332488046389D-07 -1.2247102307136D-06
   137  1.3600000000000D+00 -1.0816473280540D-07 -2.6475629548120D-06
   138  1.3700000000000D+00  0.0000000000000D+00  0.0000000000000D+00
   139  1.3800000000000D+00  0.0000000000000D+00  0.0000000000000D+00
   140  1.3900000000000D+00  0.0000000000000D+00  0.0000000000000D+00
   141  1.4000000000000D+00  0.0000000000000D+00  0.0000000000000D+00
   142  1.4100000000000D+00  0.0000000000000D+00  0.0000000000000D+00
   143  1.4200000000000D+00  0.0000000000000D+00  0.0000000000000D+00
   144  1.4300000000000D+00  0.0000000000000D+00  0.0000000000000D+00
   145  1.4400000000000D+00  0.0000000000000D+00  0.0000000000000D+00
   146  1.4500000000000D+00  0.0000000000000D+00  0.0000000000000D+00
   147  1.4600000000000D+00  0.0000000000000D+00  0.0000000000000D+00
   148  1.4700000000000D+00  0.0000000000000D+00  0.0000000000000D+00
   149  1.4800000000000D+00  0.0000000000000D+00  0.0000000000000D+00
   150  1.4900000000000D+00  0.0000000000000D+00  0.0000000000000D+00
   151  1.5000000000000D+00  0.0000000000000D+00  0.0000000000000D+00
   152  1.5100000000000D+00  0.0000000000000D+00  0.0000000000000D+00
   153  1.5200000000000D+00  0.0000000000000D+00  0.0000000000000D+00
   154  1.5300000000000D+00  0.0000000000000D+00  0.0000000000000D+00
   155  1.5400000000000D+00  0.0000000000000D+00  0.0000000000000D+00
   156  1.5500000000000D+00  0.0000000000000D+00  0.0000000000000D+00
   157  1.5600000000000D+00  0.0000000000000D+00  0.0000000000000D+00
   158  1.5700000000000D+00  0.0000000000000D+00  0.0000000000000D+00
   159  1.5800000000000D+00  0.0000000000000D+00  0.0000000000000D+00
   160  1.5900000000000D+00  0.0000000000000D+00  0.0000000000000D+00
   161  1.6000000000000D+00  0.0000000000000D+00  0.0000000000000D+00
   162  1.6100000000000D+00  0.0000000000000D+00  0.0000000000000D+00
   163  1.6200000000000D+00  0.0000000000000D+00  0.0000000000000D+00
   164  1.6300000000000D+00  0.0000000000000D+00  0.0000000000000D+00
   165  1.6400000000000D+00  0.0000000000000D+00  0.0000000000000D+00
   166  1.6500000000000D+00  0.0000000000000D+00  0.0000000000000D+00
   167  1.6600000000000D+00  0.0000000000000D+00  0.0000000000000D+00
   168  1.6700000000000D+00  0.0000000000000D+00  0.0000000000000D+00
   169  1.6800000000000D+00  0.0000000000000D+00  0.0000000000000D+00
   170  1.6900000000000D+00  0.0000000000000D+00  0.0000000000000D+00
   171  1.7000000000000D+00  0.0000000000000D+00  0.0000000000000D+00
   172  1.7100000000000D+00  0.0000000000000D+00  0.0000000000000D+00
   173  1.7200000000000D+00  0.0000000000000D+00  0.0000000000000D+00
   174  1.7300000000000D+00  0.0000000000000D+00  0.0000000000000D+00
   175  1.7400000000000D+00  0.0000000000000D+00  0.0000000000000D+00
   176  1.7500000000000D+00  0.0000000000000D+00  0.0000000000000D+00
   177  1.7600000000000D+00  0.0000000000000D+00  0.0000000000000D+00
   178  1.7700000000000D+00  0.0000000000000D+00  0.0000000000000D+00
   179  1.7800000000000D+00  0.0000000000000D+00  0.0000000000000D+00
   180  1.7900000000000D+00  0.0000000000000D+00  0.0000000000000D+00
   181  1.8000000000000D+00  0.0000000000000D+00  0.0000000000000D+00
   182  1.8100000000000D+00  0.0000000000000D+00  0.0000000000000D+00
   183  1.8200000000000D+00  0.0000000000000D+00  0.0000000000000D+00
   184  1.8300000000000D+00  0.0000000000000D+00  0.0000000000000D+00
   185  1.8400000000000D+00  0.0000000000000D+00  0.0000000000000D+00
   186  1.8500000000000D+00  0.0000000000000D+00  0.0000000000000D+00
   187  1.8600000000000D+00  0.0000000000000D+00  0.0000000000000D+00
   188  1.8700000000000D+00  0.0000000000000D+00  0.0000000000000D+00
   189  1.8800000000000D+00  0.0000000000000D+00  0.0000000000000D+00
   190  1.8900000000000D+00  0.0000000000000D+00  0.0000000000000D+00
   191  1.9000000000000D+00  0.0000000000000D+00  0.0000000000000D+00
   192  1.9100000000000D+00  0.0000000000000D+00  0.0000000000000D+00
   193  1.9200000000000D+00  0.0000000000000D+00  0.0000000000000D+00
   194  1.9300000000000D+00  0.0000000000000D+00  0.0000000000000D+00
   195  1.9400000000000D+00  0.0000000000000D+00  0.0000000000000D+00
   196  1.9500000000000D+00  0.0000000000000D+00  0.0000000000000D+00
   197  1.9600000000000D+00  0.0000000000000D+00  0.0000000000000D+00
   198  1.9700000000000D+00  0.0000000000000D+00  0.0000000000000D+00
   199  1.9800000000000D+00  0.0000000000000D+00  0.0000000000000D+00
   200  1.9900000000000D+00  0.0000000000000D+00  0.0000000000000D+00
   201  2.0000000000000D+00  0.0000000000000D+00  0.0000000000000D+00
   202  2.0100000000000D+00  0.0000000000000D+00  0.0000000000000D+00
   203  2.0200000000000D+00  0.0000000000000D+00  0.0000000000000D+00
   204  2.0300000000000D+00  0.0000000000000D+00  0.0000000000000D+00
   205  2.0400000000000D+00  0.0000000000000D+00  0.0000000000000D+00
   206  2.0500000000000D+00  0.0000000000000D+00  0.0000000000000D+00
   207  2.0600000000000D+00  0.0000000000000D+00  0.0000000000000D+00
   208  2.0700000000000D+00  0.0000000000000D+00  0.0000000000000D+00
   209  2.0800000000000D+00  0.0000000000000D+00  0.0000000000000D+00
   210  2.0900000000000D+00  0.0000000000000D+00  0.0000000000000D+00
   211  2.1000000000000D+00  0.0000000000000D+00  0.0000000000000D+00
   212  2.1100000000000D+00  0.0000000000000D+00  0.0000000000000D+00
   213  2.1200000000000D+00  0.0000000000000D+00  0.0000000000000D+00
   214  2.1300000000000D+00  0.0000000000000D+00  0.0000000000000D+00
   215  2.1400000000000D+00  0.0000000000000D+00  0.0000000000000D+00
   216  2.1500000000000D+00  0.0000000000000D+00  0.0000000000000D+00
   217  2.1600000000000D+00  0.0000000000000D+00  0.0000000000000D+00
   218  2.1700000000000D+00  0.0000000000000D+00  0.0000000000000D+00
   219  2.1800000000000D+00  0.0000000000000D+00  0.0000000000000D+00
   220  2.1900000000000D+00  0.0000000000000D+00  0.0000000000000D+00
   221  2.2000000000000D+00  0.0000000000000D+00  0.0000000000000D+00
   222  2.2100000000000D+00  0.0000000000000D+00  0.0000000000000D+00
   223  2.2200000000000D+00  0.0000000000000D+00  0.0000000000000D+00
   224  2.2300000000000D+00  0.0000000000000D+00  0.0000000000000D+00
   225  2.2400000000000D+00  0.0000000000000D+00  0.0000000000000D+00
   226  2.2500000000000D+00  0.0000000000000D+00  0.0000000000000D+00
   227  2.2600000000000D+00  0.0000000000000D+00  0.0000000000000D+00
   228  2.2700000000000D+00  0.0000000000000D+00  0.0000000000000D+00
   229  2.2800000000000D+00  0.0000000000000D+00  0.0000000000000D+00
   230  2.2900000000000D+00  0.0000000000000D+00  0.0000000000000D+00
   231  2.3000000000000D+00  0.0000000000000D+00  0.0000000000000D+00
   232  2.3100000000000D+00  0.0000000000000D+00  0.0000000000000D+00
   233  2.3200000000000D+00  0.0000000000000D+00  0.0000000000000D+00
   234  2.3300000000000D+00  0.0000000000000D+00  0.0000000000000D+00
   235  2.3400000000000D+00  0.0000000000000D+00  0.0000000000000D+00
   236  2.3500000000000D+00  0.0000000000000D+00  0.0000000000000D+00
   237  2.3600000000000D+00  0.0000000000000D+00  0.0000000000000D+00
   238  2.3700000000000D+00  0.0000000000000D+00  0.0000000000000D+00
   239  2.3800000000000D+00  0.0000000000000D+00  0.0000000000000D+00
   240  2.3900000000000D+00  0.0000000000000D+00  0.0000000000000D+00
   241  2.4000000000000D+00  0.0000000000000D+00  0.0000000000000D+00
   242  2.4100000000000D+00  0.0000000000000D+00  0.0000000000000D+00
   243  2.4200000000000D+00  0.0000000000000D+00  0.0000000000000D+00
   244  2.4300000000000D+00  0.0000000000000D+00  0.0000000000000D+00
   245  2.4400000000000D+00  0.0000000000000D+00  0.0000000000000D+00
   246  2.4500000000000D+00  0.0000000000000D+00  0.0000000000000D+00
   247  2.4600000000000D+00  0.0000000000000D+00  0.0000000000000D+00
   248  2.4700000000000D+00  0.0000000000000D+00  0.0000000000000D+00
   249  2.4800000000000D+00  0.0000000000000D+00  0.0000000000000D+00
   250  2.4900000000000D+00  0.0000000000000D+00  0.0000000000000D+00
   251  2.5000000000000D+00  0.0000000000000D+00  0.0000000000000D+00
   252  2.5100000000000D+00  0.0000000000000D+00  0.0000000000000D+00
   253  2.5200000000000D+00  0.0000000000000D+00  0.0000000000000D+00
   254  2.5300000000000D+00  0.0000000000000D+00  0.0000000000000D+00
   255  2.5400000000000D+00  0.0000000000000D+00  0.0000000000000D+00
   256  2.5500000000000D+00  0.0000000000000D+00  0.0000000000000D+00
   257  2.5600000000000D+00  0.0000000000000D+00  0.0000000000000D+00
   258  2.5700000000000D+00  0.0000000000000D+00  0.0000000000000D+00
   259  2.5800000000000D+00  0.0000000000000D+00  0.0000000000000D+00
   260  2.5900000000000D+00  0.0000000000000D+00  0.0000000000000D+00
   261  2.6000000000000D+00  0.0000000000000D+00  0.0000000000000D+00
   262  2.6100000000000D+00  0.0000000000000D+00  0.0000000000000D+00
   263  2.6200000000000D+00  0.0000000000000D+00  0.0000000000000D+00
   264  2.6300000000000D+00  0.0000000000000D+00  0.0000000000000D+00
   265  2.6400000000000D+00  0.0000000000000D+00  0.0000000000000D+00
   266  2.6500000000000D+00  0.0000000000000D+00  0.0000000000000D+00
   267  2.6600000000000D+00  0.0000000000000D+00  0.0000000000000D+00
   268  2.6700000000000D+00  0.0000000000000D+00  0.0000000000000D+00
   269  2.6800000000000D+00  0.0000000000000D+00  0.0000000000000D+00
   270  2.6900000000000D+00  0.0000000000000D+00  0.0000000000000D+00
   271  2.7000000000000D+00  0.0000000000000D+00  0.0000000000000D+00
   272  2.7100000000000D+00  0.0000000000000D+00  0.0000000000000D+00
   273  2.7200000000000D+00  0.0000000000000D+00  0.0000000000000D+00
   274  2.7300000000000D+00  0.0000000000000D+00  0.0000000000000D+00
   275  2.7400000000000D+00  0.0000000000000D+00  0.0000000000000D+00
   276  2.7500000000000D+00  0.0000000000000D+00  0.0000000000000D+00
   277  2.7600000000000D+00  0.0000000000000D+00  0.0000000000000D+00
   278  2.7700000000000D+00  0.0000000000000D+00  0.0000000000000D+00
   279  2.7800000000000D+00  0.0000000000000D+00  0.0000000000000D+00
   280  2.7900000000000D+00  0.0000000000000D+00  0.0000000000000D+00
   281  2.8000000000000D+00  0.0000000000000D+00  0.0000000000000D+00
   282  2.8100000000000D+00  0.0000000000000D+00  0.0000000000000D+00
   283  2.8200000000000D+00  0.0000000000000D+00  0.0000000000000D+00
   284  2.8300000000000D+00  0.0000000000000D+00  0.0000000000000D+00
   285  2.8400000000000D+00  0.0000000000000D+00  0.0000000000000D+00
   286  2.8500000000000D+00  0.0000000000000D+00  0.0000000000000D+00
   287  2.8600000000000D+00  0.0000000000000D+00  0.0000000000000D+00
   288  2.8700000000000D+00  0.0000000000000D+00  0.0000000000000D+00
   289  2.8800000000000D+00  0.0000000000000D+00  0.0000000000000D+00
   290  2.8900000000000D+00  0.0000000000000D+00  0.0000000000000D+00
   291  2.9000000000000D+00  0.0000000000000D+00  0.0000000000000D+00
   292  2.9100000000000D+00  0.0000000000000D+00  0.0000000000000D+00
   293  2.9200000000000D+00  0.0000000000000D+00  0.0000000000000D+00
   294  2.9300000000000D+00  0.0000000000000D+00  0.0000000000000D+00
   295  2.9400000000000D+00  0.0000000000000D+00  0.0000000000000D+00
   296  2.9500000000000D+00  0.0000000000000D+00  0.0000000000000D+00
   297  2.9600000000000D+00  0.0000000000000D+00  0.0000000000000D+00
   298  2.9700000000000D+00  0.0000000000000D+00  0.0000000000000D+00
   299  2.9800000000000D+00  0.0000000000000D+00  0.0000000000000D+00
   300  2.9900000000000D+00  0.0000000000000D+00  0.0000000000000D+00
   301  3.0000000000000D+00  0.0000000000000D+00  0.0000000000000D+00
   302  3.0100000000000D+00  0.0000000000000D+00  0.0000000000000D+00
   303  3.0200000000000D+00  0.0000000000000D+00  0.0000000000000D+00
   304  3.0300000000000D+00  0.0000000000000D+00  0.0000000000000D+00
   305  3.0400000000000D+00  0.0000000000000D+00  0.0000000000000D+00
   306  3.0500000000000D+00  0.0000000000000D+00  0.0000000000000D+00
   307  3.0600000000000D+00  0.0000000000000D+00  0.0000000000000D+00
   308  3.0700000000000D+00  0.0000000000000D+00  0.0000000000000D+00
   309  3.0800000000000D+00  0.0000000000000D+00  0.0000000000000D+00
   310  3.0900000000000D+00  0.0000000000000D+00  0.0000000000000D+00
   311  3.1000000000000D+00  0.0000000000000D+00  0.0000000000000D+00
   312  3.1100000000000D+00  0.0000000000000D+00  0.0000000000000D+00
   313  3.1200000000000D+00  0.0000000000000D+00  0.0000000000000D+00
   314  3.1300000000000D+00  0.0000000000000D+00  0.0000000000000D+00
   315  3.1400000000000D+00  0.0000000000000D+00  0.0000000000000D+00
   316  3.1500000000000D+00  0.0000000000000D+00  0.0000000000000D+00
   317  3.1600000000000D+00  0.0000000000000D+00  0.0000000000000D+00
   318  3.1700000000000D+00  0.0000000000000D+00  0.0000000000000D+00
   319  3.1800000000000D+00  0.0000000000000D+00  0.0000000000000D+00
   320  3.1900000000000D+00  0.0000000000000D+00  0.0000000000000D+00
   321  3.2000000000000D+00  0.0000000000000D+00  0.0000000000000D+00
   322  3.2100000000000D+00  0.0000000000000D+00  0.0000000000000D+00
   323  3.2200000000000D+00  0.0000000000000D+00  0.0000000000000D+00
   324  3.2300000000000D+00  0.0000000000000D+00  0.0000000000000D+00
   325  3.2400000000000D+00  0.0000000000000D+00  0.0000000000000D+00
   326  3.2500000000000D+00  0.0000000000000D+00  0.0000000000000D+00
   327  3.2600000000000D+00  0.0000000000000D+00  0.0000000000000D+00
   328  3.2700000000000D+00  0.0000000000000D+00  0.0000000000000D+00
   329  3.2800000000000D+00  0.0000000000000D+00  0.0000000000000D+00
   330  3.2900000000000D+00  0.0000000000000D+00  0.0000000000000D+00
   331  3.3000000000000D+00  0.0000000000000D+00  0.0000000000000D+00
   332  3.3100000000000D+00  0.0000000000000D+00  0.0000000000000D+00
   333  3.3200000000000D+00  0.0000000000000D+00  0.0000000000000D+00
   334  3.3300000000000D+00  0.0000000000000D+00  0.0000000000000D+00
   335  3.3400000000000D+00  0.0000000000000D+00  0.0000000000000D+00
   336  3.3500000000000D+00  0.0000000000000D+00  0.0000000000000D+00
   337  3.3600000000000D+00  0.0000000000000D+00  0.0000000000000D+00
   338  3.3700000000000D+00  0.0000000000000D+00  0.0000000000000D+00
   339  3.3800000000000D+00  0.0000000000000D+00  0.0000000000000D+00
   340  3.3900000000000D+00  0.0000000000000D+00  0.0000000000000D+00
   341  3.4000000000000D+00  0.0000000000000D+00  0.0000000000000D+00
   342  3.4100000000000D+00  0.0000000000000D+00  0.0000000000000D+00
   343  3.4200000000000D+00  0.0000000000000D+00  0.0000000000000D+00
   344  3.4300000000000D+00  0.0000000000000D+00  0.0000000000000D+00
   345  3.4400000000000D+00  0.0000000000000D+00  0.0000000000000D+00
   346  3.4500000000000D+00  0.0000000000000D+00  0.0000000000000D+00
   347  3.4600000000000D+00  0.0000000000000D+00  0.0000000000000D+00
   348  3.4700000000000D+00  0.0000000000000D+00  0.0000000000000D+00
   349  3.4800000000000D+00  0.0000000000000D+00  0.0000000000000D+00
   350  3.4900000000000D+00  0.0000000000000D+00  0.0000000000000D+00
   351  3.5000000000000D+00  0.0000000000000D+00  0.0000000000000D+00
   352  3.5100000000000D+00  0.0000000000000D+00  0.0000000000000D+00
   353  3.5200000000000D+00  0.0000000000000D+00  0.0000000000000D+00
   354  3.5300000000000D+00  0.0000000000000D+00  0.0000000000000D+00
   355  3.5400000000000D+00  0.0000000000000D+00  0.0000000000000D+00
   356  3.5500000000000D+00  0.0000000000000D+00  0.0000000000000D+00
   357  3.5600000000000D+00  0.0000000000000D+00  0.0000000000000D+00
   358  3.5700000000000D+00  0.0000000000000D+00  0.0000000000000D+00
   359  3.5800000000000D+00  0.0000000000000D+00  0.0000000000000D+00
   360  3.5900000000000D+00  0.0000000000000D+00  0.0000000000000D+00
   361  3.6000000000000D+00  0.0000000000000D+00  0.0000000000000D+00
   362  3.6100000000000D+00  0.0000000000000D+00  0.0000000000000D+00
   363  3.6200000000000D+00  0.0000000000000D+00  0.0000000000000D+00
   364  3.6300000000000D+00  0.0000000000000D+00  0.0000000000000D+00
   365  3.6400000000000D+00  0.0000000000000D+00  0.0000000000000D+00
   366  3.6500000000000D+00  0.0000000000000D+00  0.0000000000000D+00
   367  3.6600000000000D+00  0.0000000000000D+00  0.0000000000000D+00
   368  3.6700000000000D+00  0.0000000000000D+00  0.0000000000000D+00
   369  3.6800000000000D+00  0.0000000000000D+00  0.0000000000000D+00
   370  3.6900000000000D+00  0.0000000000000D+00  0.0000000000000D+00
   371  3.7000000000000D+00  0.0000000000000D+00  0.0000000000000D+00
   372  3.7100000000000D+00  0.0000000000000D+00  0.0000000000000D+00
   373  3.7200000000000D+00  0.0000000000000D+00  0.0000000000000D+00
   374  3.7300000000000D+00  0.0000000000000D+00  0.0000000000000D+00
   375  3.7400000000000D+00  0.0000000000000D+00  0.0000000000000D+00
   376  3.7500000000000D+00  0.0000000000000D+00  0.0000000000000D+00
   377  3.7600000000000D+00  0.0000000000000D+00  0.0000000000000D+00
   378  3.7700000000000D+00  0.0000000000000D+00  0.0000000000000D+00
   379  3.7800000000000D+00  0.0000000000000D+00  0.0000000000000D+00
   380  3.7900000000000D+00  0.0000000000000D+00  0.0000000000000D+00
   381  3.8000000000000D+00  0.0000000000000D+00  0.0000000000000D+00
   382  3.8100000000000D+00  0.0000000000000D+00  0.0000000000000D+00
   383  3.8200000000000D+00  0.0000000000000D+00  0.0000000000000D+00
   384  3.8300000000000D+00  0.0000000000000D+00  0.0000000000000D+00
   385  3.8400000000000D+00  0.0000000000000D+00  0.0000000000000D+00
   386  3.8500000000000D+00  0.0000000000000D+00  0.0000000000000D+00
   387  3.8600000000000D+00  0.0000000000000D+00  0.0000000000000D+00
   388  3.8700000000000D+00  0.0000000000000D+00  0.0000000000000D+00
   389  3.8800000000000D+00  0.0000000000000D+00  0.0000000000000D+00
   390  3.8900000000000D+00  0.0000000000000D+00  0.0000000000000D+00
   391  3.9000000000000D+00  0.0000000000000D+00  0.0000000000000D+00
   392  3.9100000000000D+00  0.0000000000000D+00  0.0000000000000D+00
   393  3.9200000000000D+00  0.0000000000000D+00  0.0000000000000D+00
   394  3.9300000000000D+00  0.0000000000000D+00  0.0000000000000D+00
   395  3.9400000000000D+00  0.0000000000000D+00  0.0000000000000D+00
   396  3.9500000000000D+00  0.0000000000000D+00  0.0000000000000D+00
   397  3.9600000000000D+00  0.0000000000000D+00  0.0000000000000D+00
   398  3.9700000000000D+00  0.0000000000000D+00  0.0000000000000D+00
   399  3.9800000000000D+00  0.0000000000000D+00  0.0000000000000D+00
   400  3.9900000000000D+00  0.0000000000000D+00  0.0000000000000D+00
   401  4.0000000000000D+00  0.0000000000000D+00  0.0000000000000D+00
   402  4.0100000000000D+00  0.0000000000000D+00  0.0000000000000D+00
   403  4.0200000000000D+00  0.0000000000000D+00  0.0000000000000D+00
   404  4.0300000000000D+00  0.0000000000000D+00  0.0000000000000D+00
   405  4.0400000000000D+00  0.0000000000000D+00  0.0000000000000D+00
   406  4.0500000000000D+00  0.0000000000000D+00  0.0000000000000D+00
   407  4.0600000000000D+00  0.0000000000000D+00  0.0000000000000D+00
   408  4.0700000000000D+00  0.0000000000000D+00  0.0000000000000D+00
   409  4.0800000000000D+00  0.0000000000000D+00  0.0000000000000D+00
   410  4.0900000000000D+00  0.0000000000000D+00  0.0000000000000D+00
   411  4.1000000000000D+00  0.0000000000000D+00  0.0000000000000D+00
   412  4.1100000000000D+00  0.0000000000000D+00  0.0000000000000D+00
   413  4.1200000000000D+00  0.0000000000000D+00  0.0000000000000D+00
   414  4.1300000000000D+00  0.0000000000000D+00  0.0000000000000D+00
   415  4.1400000000000D+00  0.0000000000000D+00  0.0000000000000D+00
   416  4.1500000000000D+00  0.0000000000000D+00  0.0000000000000D+00
   417  4.1600000000000D+00  0.0000000000000D+00  0.0000000000000D+00
   418  4.1700000000000D+00  0.0000000000000D+00  0.0000000000000D+00
   419  4.1800000000000D+00  0.0000000000000D+00  0.0000000000000D+00
   420  4.1900000000000D+00  0.0000000000000D+00  0.0000000000000D+00
   421  4.2000000000000D+00  0.0000000000000D+00  0.0000000000000D+00
   422  4.2100000000000D+00  0.0000000000000D+00  0.0000000000000D+00