Sb    ONCVPSP-3.3.0  r_core=   2.51105   2.15035   2.60253
     51.0000      5.0000      220408    zatom,zion,pspd
     8       2   2     4   600     0    pspcod,pspxc,lmax,lloc,mmax,r2well
  5.99000000  0.00000000  0.00000000    rchrg fchrg qchrg
     2     2     2     0     0    nproj
     1     1           extension_switch
   0                         4.8590817698592D+00  5.7315537605428D-01
     1  0.0000000000000D+00 -6.2605753914369D-12  3.2642499814273D-12
     2  1.0000000000000D-02  2.2077244955265D-02 -6.7222726938936D-03
     3  2.0000000000000D-02  4.4146067700845D-02 -1.3440269949272D-02
     4  3.0000000000000D-02  6.6198069512127D-02 -2.0149724540851D-02
     5  4.0000000000000D-02  8.8224898417182D-02 -2.6846385548348D-02
     6  5.0000000000000D-02  1.1021827203106D-01 -3.3526026206151D-02
     7  6.0000000000000D-02  1.3216999974407D-01 -4.0184451391922D-02
     8  7.0000000000000D-02  1.5407200405610D-01 -4.6817504637644D-02
     9  8.0000000000000D-02  1.7591634085531D-01 -5.3421074549906D-02
    10  9.0000000000000D-02  1.9769521844719D-01 -5.9991100530296D-02
    11  1.0000000000000D-01  2.1940101514937D-01 -6.6523577691683D-02
    12  1.1000000000000D-01  2.4102629527793D-01 -7.3014560871663D-02
    13  1.2000000000000D-01  2.6256382336304D-01 -7.9460167650915D-02
    14  1.3000000000000D-01  2.8400657644469D-01 -8.5856580291138D-02
    15  1.4000000000000D-01  3.0534775431374D-01 -9.2200046514952D-02
    16  1.5000000000000D-01  3.2658078757882D-01 -9.8486879058502D-02
    17  1.6000000000000D-01  3.4769934345566D-01 -1.0471345393632D-01
    18  1.7000000000000D-01  3.6869732919301D-01 -1.1087620736748D-01
    19  1.8000000000000D-01  3.8956889306680D-01 -1.1697163132208D-01
    20  1.9000000000000D-01  4.1030842289292D-01 -1.2299626765725D-01
    21  2.0000000000000D-01  4.3091054202792D-01 -1.2894670082285D-01
    22  2.1000000000000D-01  4.5137010284638D-01 -1.3481954912813D-01
    23  2.2000000000000D-01  4.7168217770329D-01 -1.4061145457179D-01
    24  2.3000000000000D-01  4.9184204740949D-01 -1.4631907124969D-01
    25  2.4000000000000D-01  5.1184518726813D-01 -1.5193905236622D-01
    26  2.5000000000000D-01  5.3168725073952D-01 -1.5746803588712D-01
    27  2.6000000000000D-01  5.5136405082116D-01 -1.6290262888342D-01
    28  2.7000000000000D-01  5.7087153924863D-01 -1.6823939062825D-01
    29  2.8000000000000D-01  5.9020578364148D-01 -1.7347481451983D-01
    30  2.9000000000000D-01  6.0936294273587D-01 -1.7860530891567D-01
    31  3.0000000000000D-01  6.2833923986273D-01 -1.8362717697446D-01
    32  3.1000000000000D-01  6.4713093484623D-01 -1.8853659561316D-01
    33  3.2000000000000D-01  6.6573429451245D-01 -1.9332959369756D-01
    34  3.3000000000000D-01  6.8414556201197D-01 -1.9800202959488D-01
    35  3.4000000000000D-01  7.0236092517292D-01 -2.0254956822701D-01
    36  3.5000000000000D-01  7.2037648411224D-01 -2.0696765777190D-01
    37  3.6000000000000D-01  7.3818821834317D-01 -2.1125150616953D-01
    38  3.7000000000000D-01  7.5579195362528D-01 -2.1539605759701D-01
    39  3.8000000000000D-01  7.7318332881046D-01 -2.1939596908406D-01
    40  3.9000000000000D-01  7.9035776294367D-01 -2.2324558744726D-01
    41  4.0000000000000D-01  8.0731042288100D-01 -2.2693892672654D-01
    42  4.1000000000000D-01  8.2403619168959D-01 -2.3046964631232D-01
    43  4.2000000000000D-01  8.4052963809436D-01 -2.3383102995545D-01
    44  4.3000000000000D-01  8.5678498723513D-01 -2.3701596585491D-01
    45  4.4000000000000D-01  8.7279609299451D-01 -2.4001692801981D-01
    46  4.5000000000000D-01  8.8855641215204D-01 -2.4282595910307D-01
    47  4.6000000000000D-01  9.0405898061369D-01 -2.4543465490383D-01
    48  4.7000000000000D-01  9.1929639195720D-01 -2.4783415073382D-01
    49  4.8000000000000D-01  9.3426077852396D-01 -2.5001510984043D-01
    50  4.9000000000000D-01  9.4894379527670D-01 -2.5196771407547D-01
    51  5.0000000000000D-01  9.6333660662877D-01 -2.5368165699344D-01
    52  5.1000000000000D-01  9.7742987643643D-01 -2.5514613955691D-01
    53  5.2000000000000D-01  9.9121376132942D-01 -2.5634986861941D-01
    54  5.3000000000000D-01  1.0046779075378D+00 -2.5728105834775D-01
    55  5.4000000000000D-01  1.0178114513540D+00 -2.5792743473566D-01
    56  5.5000000000000D-01  1.0306030233502D+00 -2.5827624335014D-01
    57  5.6000000000000D-01  1.0430407564491D+00 -2.5831426044002D-01
    58  5.7000000000000D-01  1.0551122979254D+00 -2.5802780752273D-01
    59  5.8000000000000D-01  1.0668048253926D+00 -2.5740276955196D-01
    60  5.9000000000000D-01  1.0781050668064D+00 -2.5642461675300D-01
    61  6.0000000000000D-01  1.0889993244924D+00 -2.5507843019718D-01
    62  6.1000000000000D-01  1.0994735031824D+00 -2.5334893116966D-01
    63  6.2000000000000D-01  1.1095131420168D+00 -2.5122051436690D-01
    64  6.3000000000000D-01  1.1191034504510D+00 -2.4867728494185D-01
    65  6.4000000000000D-01  1.1282293479744D+00 -2.4570309939578D-01
    66  6.5000000000000D-01  1.1368755075286D+00 -2.4228161029522D-01
    67  6.6000000000000D-01  1.1450264024888D+00 -2.3839631477310D-01
    68  6.7000000000000D-01  1.1526663570467D+00 -2.3403060675123D-01
    69  6.8000000000000D-01  1.1597795998123D+00 -2.2916783280112D-01
    70  6.9000000000000D-01  1.1663503204291D+00 -2.2379135153792D-01
    71  7.0000000000000D-01  1.1723627289767D+00 -2.1788459642125D-01
    72  7.1000000000000D-01  1.1778011179142D+00 -2.1143114181460D-01
    73  7.2000000000000D-01  1.1826499263012D+00 -2.0441477213377D-01
    74  7.3000000000000D-01  1.1868938060111D+00 -1.9681955389327D-01
    75  7.4000000000000D-01  1.1905176896416D+00 -1.8862991043838D-01
    76  7.5000000000000D-01  1.1935068598058D+00 -1.7983069912997D-01
    77  7.6000000000000D-01  1.1958470194811D+00 -1.7040729072901D-01
    78  7.7000000000000D-01  1.1975243630765D+00 -1.6034565070782D-01
    79  7.8000000000000D-01  1.1985256478716D+00 -1.4963242219676D-01
    80  7.9000000000000D-01  1.1988382654740D+00 -1.3825501025622D-01
    81  8.0000000000000D-01  1.1984503129332D+00 -1.2620166714784D-01
    82  8.1000000000000D-01  1.1973506631488D+00 -1.1346157826180D-01
    83  8.2000000000000D-01  1.1955290342050D+00 -1.0002494834303D-01
    84  8.3000000000000D-01  1.1929760572673D+00 -8.5883087645300D-02
    85  8.4000000000000D-01  1.1896833426782D+00 -7.1028497630163D-02
    86  8.5000000000000D-01  1.1856435438908D+00 -5.5454955817021D-02
    87  8.6000000000000D-01  1.1808504188900D+00 -3.9157599381673D-02
    88  8.7000000000000D-01  1.1752988887543D+00 -2.2133007093119D-02
    89  8.8000000000000D-01  1.1689850930262D+00 -4.3792791730243D-03
    90  8.9000000000000D-01  1.1619064415671D+00  1.4103885341987D-02
    91  9.0000000000000D-01  1.1540616625898D+00  3.3315114156519D-02
    92  9.1000000000000D-01  1.1454508465763D+00  5.3251290612760D-02
    93  9.2000000000000D-01  1.1360754858055D+00  7.3907486346474D-02
    94  9.3000000000000D-01  1.1259385092360D+00  9.5276898118344D-02
    95  9.4000000000000D-01  1.1150443125085D+00  1.1735078922993D-01
    96  9.5000000000000D-01  1.1033987828562D+00  1.4011843592587D-01
    97  9.6000000000000D-01  1.0910093187325D+00  1.6356707917306D-01
    98  9.7000000000000D-01  1.0778848439923D+00  1.8768188219585D-01
    99  9.8000000000000D-01  1.0640358164874D+00  2.1244589413153D-01
   100  9.9000000000000D-01  1.0494742309638D+00  2.3784002015364D-01
   101  1.0000000000000D+00  1.0342136161749D+00  2.6384299839278D-01
   102  1.0100000000000D+00  1.0182690261544D+00  2.9043138396295D-01
   103  1.0200000000000D+00  1.0016570256183D+00  3.1757954038059D-01
   104  1.0300000000000D+00  9.8439566949688D-01  3.4525963863730D-01
   105  1.0400000000000D+00  9.6650447662481D-01  3.7344166416220D-01
   106  1.0500000000000D+00  9.4800439764542D-01  4.0209343188173D-01
   107  1.0600000000000D+00  9.2891777721650D-01  4.3118060955439D-01
   108  1.0700000000000D+00  9.0926831063014D-01  4.6066674952804D-01
   109  1.0800000000000D+00  8.8908099498830D-01  4.9051332903444D-01
   110  1.0900000000000D+00  8.6838207510335D-01  5.2067979910089D-01
   111  1.1000000000000D+00  8.4719898431773D-01  5.5112364212561D-01
   112  1.1100000000000D+00  8.2556028046420D-01  5.8180043812407D-01
   113  1.1200000000000D+00  8.0349557720859D-01  6.1266393962306D-01
   114  1.1300000000000D+00  7.8103547104419D-01  6.4366615513465D-01
   115  1.1400000000000D+00  7.5821146422591D-01  6.7475744110812D-01
   116  1.1500000000000D+00  7.3505588395424D-01  7.0588660221551D-01
   117  1.1600000000000D+00  7.1160179813392D-01  7.3700099979588D-01
   118  1.1700000000000D+00  6.8788292805363D-01  7.6804666823501D-01
   119  1.1800000000000D+00  6.6393355834539D-01  7.9896843902387D-01
   120  1.1900000000000D+00  6.3978844459661D-01  8.2971007219546D-01
   121  1.2000000000000D+00  6.1548271899611D-01  8.6021439481647D-01
   122  1.2100000000000D+00  5.9105179440956D-01  8.9042344615266D-01
   123  1.2200000000000D+00  5.6653126728319D-01  9.2027862910102D-01
   124  1.2300000000000D+00  5.4195681977976D-01  9.4972086745303D-01
   125  1.2400000000000D+00  5.1736412155636D-01  9.7869076850858D-01
   126  1.2500000000000D+00  4.9278873159165D-01  1.0071287905276D+00
   127  1.2600000000000D+00  4.6826600046966D-01  1.0349754144853D+00
   128  1.2700000000000D+00  4.4383097352626D-01  1.0621713195641D+00
   129  1.2800000000000D+00  4.1951829525416D-01  1.0886575617761D+00
   130  1.2900000000000D+00  3.9536211535790D-01  1.1143757551060D+00
   131  1.3000000000000D+00  3.7139599684468D-01  1.1392682545279D+00
   132  1.3100000000000D+00  3.4765282651344D-01  1.1632783402274D+00
   133  1.3200000000000D+00  3.2416472820431D-01  1.1863504023544D+00
   134  1.3300000000000D+00  3.0096297915390D-01  1.2084301256086D+00
   135  1.3400000000000D+00  2.7807792976701D-01  1.2294646729434D+00
   136  1.3500000000000D+00  2.5553892712951D-01  1.2494028676810D+00
   137  1.3600000000000D+00  2.3337424254182D-01  1.2681953733035D+00
   138  1.3700000000000D+00  2.1161100332382D-01  1.2857948702030D+00
   139  1.3800000000000D+00  1.9027512917035D-01  1.3021562286540D+00
   140  1.3900000000000D+00  1.6939127323825D-01  1.3172366772907D+00
   141  1.4000000000000D+00  1.4898276818183D-01  1.3309959663721D+00
   142  1.4100000000000D+00  1.2907157731778D-01  1.3433965251117D+00
   143  1.4200000000000D+00  1.0967825102004D-01  1.3544036124104D+00
   144  1.4300000000000D+00  9.0821888529181D-02  1.3639854602653D+00
   145  1.4400000000000D+00  7.2520105204938D-02  1.3721134092383D+00
   146  1.4500000000000D+00  5.4789005321842D-02  1.3787620353286D+00
   147  1.4600000000000D+00  3.7643160453504D-02  1.3839092676134D+00
   148  1.4700000000000D+00  2.1095593404978D-02  1.3875364961472D+00
   149  1.4800000000000D+00  5.1577677649631D-03  1.3896286694482D+00
   150  1.4900000000000D+00 -1.0160417063773D-02  1.3901743811961D+00
   151  1.5000000000000D+00 -2.4850625332510D-02  1.3891659455300D+00
   152  1.5100000000000D+00 -3.8906079066433D-02  1.3865994605934D+00
   153  1.5200000000000D+00 -5.2321546926703D-02  1.3824748599048D+00
   154  1.5300000000000D+00 -6.5093327938702D-02  1.3767959511424D+00
   155  1.5400000000000D+00 -7.7219230298369D-02  1.3695704421795D+00
   156  1.5500000000000D+00 -8.8698545353317D-02  1.3608099538745D+00
   157  1.5600000000000D+00 -9.9532017067852D-02  1.3505300197266D+00
   158  1.5700000000000D+00 -1.0972180706898D-01  1.3387500718592D+00
   159  1.5800000000000D+00 -1.1927145562587D-01  1.3254934136186D+00
   160  1.5900000000000D+00 -1.2818583871102D-01  1.3107871783730D+00
   161  1.6000000000000D+00 -1.3647112148629D-01  1.2946622748235D+00
   162  1.6100000000000D+00 -1.4413470842797D-01  1.2771533186386D+00
   163  1.6200000000000D+00 -1.5118519041901D-01  1.2582985507074D+00
   164  1.6300000000000D+00 -1.5763228907005D-01  1.2381397420629D+00
   165  1.6400000000000D+00 -1.6348679859007D-01  1.2167220857561D+00
   166  1.6500000000000D+00 -1.6876052549297D-01  1.1940940759600D+00
   167  1.6600000000000D+00 -1.7346622646194D-01  1.1703073745866D+00
   168  1.6700000000000D+00 -1.7761754466086D-01  1.1454166658977D+00
   169  1.6800000000000D+00 -1.8122894482168D-01  1.1194794994180D+00
   170  1.6900000000000D+00 -1.8431564738210D-01  1.0925561217962D+00
   171  1.7000000000000D+00 -1.8689356201049D-01  1.0647092979804D+00
   172  1.7100000000000D+00 -1.8897922076655D-01  1.0360041224673D+00
   173  1.7200000000000D+00 -1.9058971123659D-01  1.0065078210892D+00
   174  1.7300000000000D+00 -1.9174260986412D-01  9.7628954415682D-01
   175  1.7400000000000D+00 -1.9245591580114D-01  9.4542015155230D-01
   176  1.7500000000000D+00 -1.9274798548270D-01  9.1397199059959D-01
   177  1.7600000000000D+00 -1.9263746821051D-01  8.8201866746190D-01
   178  1.7700000000000D+00 -1.9214324295219D-01  8.4963481286069D-01
   179  1.7800000000000D+00 -1.9128435656488D-01  8.1689584302616D-01
   180  1.7900000000000D+00 -1.9007996368862D-01  7.8387771662609D-01
   181  1.8000000000000D+00 -1.8854926839448D-01  7.5065668871126D-01
   182  1.8100000000000D+00 -1.8671146791511D-01  7.1730906240379D-01
   183  1.8200000000000D+00 -1.8458569836853D-01  6.8391093941075D-01
   184  1.8300000000000D+00 -1.8219098293010D-01  6.5053797015287D-01
   185  1.8400000000000D+00 -1.7954618214939D-01  6.1726510449120D-01
   186  1.8500000000000D+00 -1.7666994699709D-01  5.8416634402955D-01
   187  1.8600000000000D+00 -1.7358067419636D-01  5.5131449674233D-01
   188  1.8700000000000D+00 -1.7029646439201D-01  5.1878093512899D-01
   189  1.8800000000000D+00 -1.6683508277768D-01  4.8663535844361D-01
   190  1.8900000000000D+00 -1.6321392251242D-01  4.5494556024747D-01
   191  1.9000000000000D+00 -1.5944997075863D-01  4.2377720187699D-01
   192  1.9100000000000D+00 -1.5555977735507D-01  3.9319359276556D-01
   193  1.9200000000000D+00 -1.5155942622930D-01  3.6325547864346D-01
   194  1.9300000000000D+00 -1.4746450922872D-01  3.3402083779297D-01
   195  1.9400000000000D+00 -1.4329010271073D-01  3.0554468716981D-01
   196  1.9500000000000D+00 -1.3905074637438D-01  2.7787889767644D-01
   197  1.9600000000000D+00 -1.3476042467385D-01  2.5107202085308D-01
   198  1.9700000000000D+00 -1.3043255040336D-01  2.2516912617922D-01
   199  1.9800000000000D+00 -1.2607995052222D-01  2.0021165051551D-01
   200  1.9900000000000D+00 -1.2171485409241D-01  1.7623726004576D-01
   201  2.0000000000000D+00 -1.1734888210366D-01  1.5327972441706D-01
   202  2.0100000000000D+00 -1.1299303924027D-01  1.3136880524938D-01
   203  2.0200000000000D+00 -1.0865770727635D-01  1.1053015695587D-01
   204  2.0300000000000D+00 -1.0435264009956D-01  9.0785242764468D-02
   205  2.0400000000000D+00 -1.0008696016717D-01  7.2151264169111D-02
   206  2.0500000000000D+00 -9.5869156264615D-02  5.4641104841715D-02
   207  2.0600000000000D+00 -9.1707082420270D-02  3.8263289893594D-02
   208  2.0700000000000D+00 -8.7607957915849D-02  2.3021958157894D-02
   209  2.0800000000000D+00 -8.3578367417110D-02  8.9168480001599D-03
   210  2.0900000000000D+00 -7.9624264884332D-02 -4.0566908343835D-03
   211  2.1000000000000D+00 -7.5750974479968D-02 -1.5907686313141D-02
   212  2.1100000000000D+00 -7.1963182699863D-02 -2.6649558699808D-02
   213  2.1200000000000D+00 -6.8264979594189D-02 -3.6299912557231D-02
   214  2.1300000000000D+00 -6.4659827467482D-02 -4.4880622096147D-02
   215  2.1400000000000D+00 -6.1150531237750D-02 -5.2417915801689D-02
   216  2.1500000000000D+00 -5.7739274202389D-02 -5.8942146868914D-02
   217  2.1600000000000D+00 -5.4427724255233D-02 -6.4487239956500D-02
   218  2.1700000000000D+00 -5.1217089569540D-02 -6.9090325408046D-02
   219  2.1800000000000D+00 -4.8108199131627D-02 -7.2791333839913D-02
   220  2.1900000000000D+00 -4.5101609425038D-02 -7.5632432978187D-02
   221  2.2000000000000D+00 -4.2197687768909D-02 -7.7657570378516D-02
   222  2.2100000000000D+00 -3.9396588168272D-02 -7.8912486745951D-02
   223  2.2200000000000D+00 -3.6698254661852D-02 -7.9444616170092D-02
   224  2.2300000000000D+00 -3.4102462681766D-02 -7.9302780057110D-02
   225  2.2400000000000D+00 -3.1608842205529D-02 -7.8536960342627D-02
   226  2.2500000000000D+00 -2.9216889817502D-02 -7.7198117896559D-02
   227  2.2600000000000D+00 -2.6925991345439D-02 -7.5337949727366D-02
   228  2.2700000000000D+00 -2.4735437974053D-02 -7.3008671279450D-02
   229  2.2800000000000D+00 -2.2644442179592D-02 -7.0262792226585D-02
   230  2.2900000000000D+00 -2.0652152275323D-02 -6.7152892126415D-02
   231  2.3000000000000D+00 -1.8757666114014D-02 -6.3731396773907D-02
   232  2.3100000000000D+00 -1.6960043330892D-02 -6.0050356574046D-02
   233  2.3200000000000D+00 -1.5258316499526D-02 -5.6161227647841D-02
   234  2.3300000000000D+00 -1.3651501417647D-02 -5.2114655854881D-02
   235  2.3400000000000D+00 -1.2138606008919D-02 -4.7960266549069D-02
   236  2.3500000000000D+00 -1.0718638422138D-02 -4.3746458935465D-02
   237  2.3600000000000D+00 -9.3906141888976D-03 -3.9520206408544D-02
   238  2.3700000000000D+00 -8.1535623677212D-03 -3.5326865456763D-02
   239  2.3800000000000D+00 -7.0065309426288D-03 -3.1209990982049D-02
   240  2.3900000000000D+00 -5.9485914305852D-03 -2.7211160817096D-02
   241  2.4000000000000D+00 -4.9788427814044D-03 -2.3369810956333D-02
   242  2.4100000000000D+00 -4.0964145807239D-03 -1.9723078753765D-02
   243  2.4200000000000D+00 -3.3004697202672D-03 -1.6305658549055D-02
   244  2.4300000000000D+00 -2.5905826926753D-03 -1.3152662508852D-02
   245  2.4400000000000D+00 -1.9654222342663D-03 -1.0289002055719D-02
   246  2.4500000000000D+00 -1.4238421629536D-03 -7.7379506345544D-03
   247  2.4600000000000D+00 -9.6403576015335D-04 -5.5097737375706D-03
   248  2.4700000000000D+00 -5.8833421081206D-04 -3.6564179162752D-03
   249  2.4800000000000D+00 -2.9816492656628D-04 -2.2153996514745D-03
   250  2.4900000000000D+00 -9.2514079018651D-05 -1.2212919345979D-03
   251  2.5000000000000D+00  3.3392294775354D-05 -5.9796707081285D-04
   252  2.5100000000000D+00  8.9073488665329D-05 -2.5482261819371D-04
   253  2.5200000000000D+00  8.3693340522968D-05 -7.9043238363492D-05
   254  2.5300000000000D+00  4.6676338750118D-05 -1.1744847554770D-05
   255  2.5400000000000D+00  4.3184195568331D-06  2.8638753152892D-07
   256  2.5500000000000D+00 -1.3693951273793D-05 -2.8657889897102D-06
   257  2.5600000000000D+00 -1.3077907689448D-05 -4.7447532330782D-06
   258  2.5700000000000D+00 -2.1299260688712D-06 -1.0020824265786D-06
   259  2.5800000000000D+00  2.6258461467433D-06 -3.9609312441845D-07
   260  2.5900000000000D+00  2.9540695370878D-06 -2.3330499276494D-07
   261  2.6000000000000D+00  7.4257599924405D-07 -1.5007227536984D-08
   262  2.6100000000000D+00 -1.9206670009873D-07  4.8580419800336D-07
   263  2.6200000000000D+00 -2.4992667449665D-07  6.3215241164178D-07
   264  2.6300000000000D+00 -9.0189695853055D-08  2.2812144343365D-07
   265  2.6400000000000D+00  0.0000000000000D+00  0.0000000000000D+00
   266  2.6500000000000D+00  0.0000000000000D+00  0.0000000000000D+00
   267  2.6600000000000D+00  0.0000000000000D+00  0.0000000000000D+00
   268  2.6700000000000D+00  0.0000000000000D+00  0.0000000000000D+00
   269  2.6800000000000D+00  0.0000000000000D+00  0.0000000000000D+00
   270  2.6900000000000D+00  0.0000000000000D+00  0.0000000000000D+00
   271  2.7000000000000D+00  0.0000000000000D+00  0.0000000000000D+00
   272  2.7100000000000D+00  0.0000000000000D+00  0.0000000000000D+00
   273  2.7200000000000D+00  0.0000000000000D+00  0.0000000000000D+00
   274  2.7300000000000D+00  0.0000000000000D+00  0.0000000000000D+00
   275  2.7400000000000D+00  0.0000000000000D+00  0.0000000000000D+00
   276  2.7500000000000D+00  0.0000000000000D+00  0.0000000000000D+00
   277  2.7600000000000D+00  0.0000000000000D+00  0.0000000000000D+00
   278  2.7700000000000D+00  0.0000000000000D+00  0.0000000000000D+00
   279  2.7800000000000D+00  0.0000000000000D+00  0.0000000000000D+00
   280  2.7900000000000D+00  0.0000000000000D+00  0.0000000000000D+00
   281  2.8000000000000D+00  0.0000000000000D+00  0.0000000000000D+00
   282  2.8100000000000D+00  0.0000000000000D+00  0.0000000000000D+00
   283  2.8200000000000D+00  0.0000000000000D+00  0.0000000000000D+00
   284  2.8300000000000D+00  0.0000000000000D+00  0.0000000000000D+00
   285  2.8400000000000D+00  0.0000000000000D+00  0.0000000000000D+00
   286  2.8500000000000D+00  0.0000000000000D+00  0.0000000000000D+00
   287  2.8600000000000D+00  0.0000000000000D+00  0.0000000000000D+00
   288  2.8700000000000D+00  0.0000000000000D+00  0.0000000000000D+00
   289  2.8800000000000D+00  0.0000000000000D+00  0.0000000000000D+00
   290  2.8900000000000D+00  0.0000000000000D+00  0.0000000000000D+00
   291  2.9000000000000D+00  0.0000000000000D+00  0.0000000000000D+00
   292  2.9100000000000D+00  0.0000000000000D+00  0.0000000000000D+00
   293  2.9200000000000D+00  0.0000000000000D+00  0.0000000000000D+00
   294  2.9300000000000D+00  0.0000000000000D+00  0.0000000000000D+00
   295  2.9400000000000D+00  0.0000000000000D+00  0.0000000000000D+00
   296  2.9500000000000D+00  0.0000000000000D+00  0.0000000000000D+00
   297  2.9600000000000D+00  0.0000000000000D+00  0.0000000000000D+00
   298  2.9700000000000D+00  0.0000000000000D+00  0.0000000000000D+00
   299  2.9800000000000D+00  0.0000000000000D+00  0.0000000000000D+00
   300  2.9900000000000D+00  0.0000000000000D+00  0.0000000000000D+00
   301  3.0000000000000D+00  0.0000000000000D+00  0.0000000000000D+00
   302  3.0100000000000D+00  0.0000000000000D+00  0.0000000000000D+00
   303  3.0200000000000D+00  0.0000000000000D+00  0.0000000000000D+00
   304  3.0300000000000D+00  0.0000000000000D+00  0.0000000000000D+00
   305  3.0400000000000D+00  0.0000000000000D+00  0.0000000000000D+00
   306  3.0500000000000D+00  0.0000000000000D+00  0.0000000000000D+00
   307  3.0600000000000D+00  0.0000000000000D+00  0.0000000000000D+00
   308  3.0700000000000D+00  0.0000000000000D+00  0.0000000000000D+00
   309  3.0800000000000D+00  0.0000000000000D+00  0.0000000000000D+00
   310  3.0900000000000D+00  0.0000000000000D+00  0.0000000000000D+00
   311  3.1000000000000D+00  0.0000000000000D+00  0.0000000000000D+00
   312  3.1100000000000D+00  0.0000000000000D+00  0.0000000000000D+00
   313  3.1200000000000D+00  0.0000000000000D+00  0.0000000000000D+00
   314  3.1300000000000D+00  0.0000000000000D+00  0.0000000000000D+00
   315  3.1400000000000D+00  0.0000000000000D+00  0.0000000000000D+00
   316  3.1500000000000D+00  0.0000000000000D+00  0.0000000000000D+00
   317  3.1600000000000D+00  0.0000000000000D+00  0.0000000000000D+00
   318  3.1700000000000D+00  0.0000000000000D+00  0.0000000000000D+00
   319  3.1800000000000D+00  0.0000000000000D+00  0.0000000000000D+00
   320  3.1900000000000D+00  0.0000000000000D+00  0.0000000000000D+00
   321  3.2000000000000D+00  0.0000000000000D+00  0.0000000000000D+00
   322  3.2100000000000D+00  0.0000000000000D+00  0.0000000000000D+00
   323  3.2200000000000D+00  0.0000000000000D+00  0.0000000000000D+00
   324  3.2300000000000D+00  0.0000000000000D+00  0.0000000000000D+00
   325  3.2400000000000D+00  0.0000000000000D+00  0.0000000000000D+00
   326  3.2500000000000D+00  0.0000000000000D+00  0.0000000000000D+00
   327  3.2600000000000D+00  0.0000000000000D+00  0.0000000000000D+00
   328  3.2700000000000D+00  0.0000000000000D+00  0.0000000000000D+00
   329  3.2800000000000D+00  0.0000000000000D+00  0.0000000000000D+00
   330  3.2900000000000D+00  0.0000000000000D+00  0.0000000000000D+00
   331  3.3000000000000D+00  0.0000000000000D+00  0.0000000000000D+00
   332  3.3100000000000D+00  0.0000000000000D+00  0.0000000000000D+00
   333  3.3200000000000D+00  0.0000000000000D+00  0.0000000000000D+00
   334  3.3300000000000D+00  0.0000000000000D+00  0.0000000000000D+00
   335  3.3400000000000D+00  0.0000000000000D+00  0.0000000000000D+00
   336  3.3500000000000D+00  0.0000000000000D+00  0.0000000000000D+00
   337  3.3600000000000D+00  0.0000000000000D+00  0.0000000000000D+00
   338  3.3700000000000D+00  0.0000000000000D+00  0.0000000000000D+00
   339  3.3800000000000D+00  0.0000000000000D+00  0.0000000000000D+00
   340  3.3900000000000D+00  0.0000000000000D+00  0.0000000000000D+00
   341  3.4000000000000D+00  0.0000000000000D+00  0.0000000000000D+00
   342  3.4100000000000D+00  0.0000000000000D+00  0.0000000000000D+00
   343  3.4200000000000D+00  0.0000000000000D+00  0.0000000000000D+00
   344  3.4300000000000D+00  0.0000000000000D+00  0.0000000000000D+00
   345  3.4400000000000D+00  0.0000000000000D+00  0.0000000000000D+00
   346  3.4500000000000D+00  0.0000000000000D+00  0.0000000000000D+00
   347  3.4600000000000D+00  0.0000000000000D+00  0.0000000000000D+00
   348  3.4700000000000D+00  0.0000000000000D+00  0.0000000000000D+00
   349  3.4800000000000D+00  0.0000000000000D+00  0.0000000000000D+00
   350  3.4900000000000D+00  0.0000000000000D+00  0.0000000000000D+00
   351  3.5000000000000D+00  0.0000000000000D+00  0.0000000000000D+00
   352  3.5100000000000D+00  0.0000000000000D+00  0.0000000000000D+00
   353  3.5200000000000D+00  0.0000000000000D+00  0.0000000000000D+00
   354  3.5300000000000D+00  0.0000000000000D+00  0.0000000000000D+00
   355  3.5400000000000D+00  0.0000000000000D+00  0.0000000000000D+00
   356  3.5500000000000D+00  0.0000000000000D+00  0.0000000000000D+00
   357  3.5600000000000D+00  0.0000000000000D+00  0.0000000000000D+00
   358  3.5700000000000D+00  0.0000000000000D+00  0.0000000000000D+00
   359  3.5800000000000D+00  0.0000000000000D+00  0.0000000000000D+00
   360  3.5900000000000D+00  0.0000000000000D+00  0.0000000000000D+00
   361  3.6000000000000D+00  0.0000000000000D+00  0.0000000000000D+00
   362  3.6100000000000D+00  0.0000000000000D+00  0.0000000000000D+00
   363  3.6200000000000D+00  0.0000000000000D+00  0.0000000000000D+00
   364  3.6300000000000D+00  0.0000000000000D+00  0.0000000000000D+00
   365  3.6400000000000D+00  0.0000000000000D+00  0.0000000000000D+00
   366  3.6500000000000D+00  0.0000000000000D+00  0.0000000000000D+00
   367  3.6600000000000D+00  0.0000000000000D+00  0.0000000000000D+00
   368  3.6700000000000D+00  0.0000000000000D+00  0.0000000000000D+00
   369  3.6800000000000D+00  0.0000000000000D+00  0.0000000000000D+00
   370  3.6900000000000D+00  0.0000000000000D+00  0.0000000000000D+00
   371  3.7000000000000D+00  0.0000000000000D+00  0.0000000000000D+00
   372  3.7100000000000D+00  0.0000000000000D+00  0.0000000000000D+00
   373  3.7200000000000D+00  0.0000000000000D+00  0.0000000000000D+00
   374  3.7300000000000D+00  0.0000000000000D+00  0.0000000000000D+00
   375  3.7400000000000D+00  0.0000000000000D+00  0.0000000000000D+00
   376  3.7500000000000D+00  0.0000000000000D+00  0.0000000000000D+00
   377  3.7600000000000D+00  0.0000000000000D+00  0.0000000000000D+00
   378  3.7700000000000D+00  0.0000000000000D+00  0.0000000000000D+00
   379  3.7800000000000D+00  0.0000000000000D+00  0.0000000000000D+00
   380  3.7900000000000D+00  0.0000000000000D+00  0.0000000000000D+00
   381  3.8000000000000D+00  0.0000000000000D+00  0.0000000000000D+00
   382  3.8100000000000D+00  0.0000000000000D+00  0.0000000000000D+00
   383  3.8200000000000D+00  0.0000000000000D+00  0.0000000000000D+00
   384  3.8300000000000D+00  0.0000000000000D+00  0.0000000000000D+00
   385  3.8400000000000D+00  0.0000000000000D+00  0.0000000000000D+00
   386  3.8500000000000D+00  0.0000000000000D+00  0.0000000000000D+00
   387  3.8600000000000D+00  0.0000000000000D+00  0.0000000000000D+00
   388  3.8700000000000D+00  0.0000000000000D+00  0.0000000000000D+00
   389  3.8800000000000D+00  0.0000000000000D+00  0.0000000000000D+00
   390  3.8900000000000D+00  0.0000000000000D+00  0.0000000000000D+00
   391  3.9000000000000D+00  0.0000000000000D+00  0.0000000000000D+00
   392  3.9100000000000D+00  0.0000000000000D+00  0.0000000000000D+00
   393  3.9200000000000D+00  0.0000000000000D+00  0.0000000000000D+00
   394  3.9300000000000D+00  0.0000000000000D+00  0.0000000000000D+00
   395  3.9400000000000D+00  0.0000000000000D+00  0.0000000000000D+00
   396  3.9500000000000D+00  0.0000000000000D+00  0.0000000000000D+00
   397  3.9600000000000D+00  0.0000000000000D+00  0.0000000000000D+00
   398  3.9700000000000D+00  0.0000000000000D+00  0.0000000000000D+00
   399  3.9800000000000D+00  0.0000000000000D+00  0.0000000000000D+00
   400  3.9900000000000D+00  0.0000000000000D+00  0.0000000000000D+00
   401  4.0000000000000D+00  0.0000000000000D+00  0.0000000000000D+00
   402  4.0100000000000D+00  0.0000000000000D+00  0.0000000000000D+00
   403  4.0200000000000D+00  0.0000000000000D+00  0.0000000000000D+00
   404  4.0300000000000D+00  0.0000000000000D+00  0.0000000000000D+00
   405  4.0400000000000D+00  0.0000000000000D+00  0.0000000000000D+00
   406  4.0500000000000D+00  0.0000000000000D+00  0.0000000000000D+00
   407  4.0600000000000D+00  0.0000000000000D+00  0.0000000000000D+00
   408  4.0700000000000D+00  0.0000000000000D+00  0.0000000000000D+00
   409  4.0800000000000D+00  0.0000000000000D+00  0.0000000000000D+00
   410  4.0900000000000D+00  0.0000000000000D+00  0.0000000000000D+00
   411  4.1000000000000D+00  0.0000000000000D+00  0.0000000000000D+00
   412  4.1100000000000D+00  0.0000000000000D+00  0.0000000000000D+00
   413  4.1200000000000D+00  0.0000000000000D+00  0.0000000000000D+00
   414  4.1300000000000D+00  0.0000000000000D+00  0.0000000000000D+00
   415  4.1400000000000D+00  0.0000000000000D+00  0.0000000000000D+00
   416  4.1500000000000D+00  0.0000000000000D+00  0.0000000000000D+00
   417  4.1600000000000D+00  0.0000000000000D+00  0.0000000000000D+00
   418  4.1700000000000D+00  0.0000000000000D+00  0.0000000000000D+00
   419  4.1800000000000D+00  0.0000000000000D+00  0.0000000000000D+00
   420  4.1900000000000D+00  0.0000000000000D+00  0.0000000000000D+00
   421  4.2000000000000D+00  0.0000000000000D+00  0.0000000000000D+00
   422  4.2100000000000D+00  0.0000000000000D+00  0.0000000000000D+00