In    ONCVPSP-3.3.0  r_core=   2.10853   2.37566   1.87143
     49.0000     13.0000      220408    zatom,zion,pspd
     8       2   2     4   600     0    pspcod,pspxc,lmax,lloc,mmax,r2well
  5.99000000  0.00000000  0.00000000    rchrg fchrg qchrg
     2     2     2     0     0    nproj
     1     1           extension_switch
   0                         1.3088270184662D+01  1.9375196151608D+00
     1  0.0000000000000D+00 -2.0240920051151D-10  2.0169893533151D-10
     2  1.0000000000000D-02  5.9232964222754D-02 -4.0174915543922D-02
     3  2.0000000000000D-02  1.1818368675726D-01 -8.0075979853825D-02
     4  3.0000000000000D-02  1.7657155927309D-01 -1.1943093399859D-01
     5  4.0000000000000D-02  2.3411923083645D-01 -1.5797069449277D-01
     6  5.0000000000000D-02  2.9055421336190D-01 -1.9543091817011D-01
     7  6.0000000000000D-02  3.4561045931172D-01 -2.3155353978073D-01
     8  7.0000000000000D-02  3.9902990262972D-01 -2.6608827345691D-01
     9  8.0000000000000D-02  4.5056395409912D-01 -2.9879406939426D-01
    10  9.0000000000000D-02  4.9997494256511D-01 -3.2944051734501D-01
    11  1.0000000000000D-01  5.4703749376099D-01 -3.5780918881769D-01
    12  1.1000000000000D-01  5.9153983882109D-01 -3.8369491022017D-01
    13  1.2000000000000D-01  6.3328504495236D-01 -4.0690695956990D-01
    14  1.3000000000000D-01  6.7209216116640D-01 -4.2727017982372D-01
    15  1.4000000000000D-01  7.0779727244463D-01 -4.4462600234755D-01
    16  1.5000000000000D-01  7.4025445621661D-01 -4.5883337455190D-01
    17  1.6000000000000D-01  7.6933663557444D-01 -4.6976958625817D-01
    18  1.7000000000000D-01  7.9493632422048D-01 -4.7733098993262D-01
    19  1.8000000000000D-01  8.1696625874939D-01 -4.8143361052419D-01
    20  1.9000000000000D-01  8.3535991449479D-01 -4.8201364126778D-01
    21  2.0000000000000D-01  8.5007190182268D-01 -4.7902782246179D-01
    22  2.1000000000000D-01  8.6107824042482D-01 -4.7245370089417D-01
    23  2.2000000000000D-01  8.6837650985157D-01 -4.6228976827235D-01
    24  2.3000000000000D-01  8.7198587522199D-01 -4.4855547770381D-01
    25  2.4000000000000D-01  8.7194698775532D-01 -4.3129113797379D-01
    26  2.5000000000000D-01  8.6832176047833D-01 -4.1055768606929D-01
    27  2.6000000000000D-01  8.6119302017394D-01 -3.8643633910147D-01
    28  2.7000000000000D-01  8.5066403734396D-01 -3.5902812747658D-01
    29  2.8000000000000D-01  8.3685793665831D-01 -3.2845331185640D-01
    30  2.9000000000000D-01  8.1991699105183D-01 -2.9485068712686D-01
    31  3.0000000000000D-01  8.0000180330280D-01 -2.5837677725639D-01
    32  3.1000000000000D-01  7.7729037958155D-01 -2.1920492556779D-01
    33  3.2000000000000D-01  7.5197710008877D-01 -1.7752428556669D-01
    34  3.3000000000000D-01  7.2427159250818D-01 -1.3353871806174D-01
    35  3.4000000000000D-01  6.9439751457276D-01 -8.7465600873028D-02
    36  3.5000000000000D-01  6.6259125258549D-01 -3.9534557952462D-02
    37  3.6000000000000D-01  6.2910054324030D-01  1.0013884769658D-02
    38  3.7000000000000D-01  5.9418302655364D-01  6.0929709048231D-02
    39  3.8000000000000D-01  5.5810473813992D-01  1.1295487132634D-01
    40  3.9000000000000D-01  5.2113854944088D-01  1.6582481854605D-01
    41  4.0000000000000D-01  4.8356256484846D-01  2.1927004392248D-01
    42  4.1000000000000D-01  4.4565848493992D-01  2.7301767357401D-01
    43  4.2000000000000D-01  4.0770994527189D-01  3.2679307469096D-01
    44  4.3000000000000D-01  3.7000084035347D-01  3.8032147576822D-01
    45  4.4000000000000D-01  3.3281364253816D-01  4.3332958932564D-01
    46  4.5000000000000D-01  2.9642772563690D-01  4.8554722749409D-01
    47  4.6000000000000D-01  2.6111770306135D-01  5.3670890085587D-01
    48  4.7000000000000D-01  2.2715179025534D-01  5.8655539099612D-01
    49  4.8000000000000D-01  1.9479020106450D-01  6.3483528734639D-01
    50  4.9000000000000D-01  1.6428358752889D-01  6.8130647908345D-01
    51  5.0000000000000D-01  1.3587153236159D-01  7.2573759308336D-01
    52  5.1000000000000D-01  1.0978110309918D-01  7.6790936922371D-01
    53  5.2000000000000D-01  8.6225476578300D-02  8.0761596467271D-01
    54  5.3000000000000D-01  6.5402642007683D-02  8.4466617920226D-01
    55  5.4000000000000D-01  4.7494190470575D-02  8.7888459400947D-01
    56  5.5000000000000D-01  3.2664198207302D-02  9.1011261702765D-01
    57  5.6000000000000D-01  2.1058210498559D-02  9.3820942824745D-01
    58  5.7000000000000D-01  1.2802332396144D-02  9.6305281915197D-01
    59  5.8000000000000D-01  8.0024319339553D-03  9.8453992099116D-01
    60  5.9000000000000D-01  6.7434608026747D-03  1.0025878172766D+00
    61  6.0000000000000D-01  9.0888967868345D-03  1.0171340365675D+00
    62  6.1000000000000D-01  1.5080311551401D-02  1.0281369223321D+00
    63  6.2000000000000D-01  2.4737066627275D-02  1.0355758774103D+00
    64  6.3000000000000D-01  3.8056139684966D-02  1.0394514813596D+00
    65  6.4000000000000D-01  5.5012082414617D-02  1.0397854797379D+00
    66  6.5000000000000D-01  7.5557110540134D-02  1.0366206451613D+00
    67  6.6000000000000D-01  9.9621325704134D-02  1.0300205107593D+00
    68  6.7000000000000D-01  1.2711306816645D-01  1.0200689774382D+00
    69  6.8000000000000D-01  1.5791939846344D-01  1.0068697971428D+00
    70  6.9000000000000D-01  1.9190670539257D-01  9.9054593508428D-01
    71  7.0000000000000D-01  2.2892143691547D-01  9.7123881465037D-01
    72  7.1000000000000D-01  2.6879094981730D-01  9.4910744946030D-01
    73  7.2000000000000D-01  3.1132447322799D-01  9.2432746773416D-01
    74  7.3000000000000D-01  3.5631418040739D-01  8.9709003483258D-01
    75  7.4000000000000D-01  4.0353636252219D-01  8.6760068047247D-01
    76  7.5000000000000D-01  4.5275269750645D-01  8.3607803773572D-01
    77  7.6000000000000D-01  5.0371160650071D-01  8.0275250155823D-01
    78  7.7000000000000D-01  5.5614968981180D-01  7.6786481491052D-01
    79  7.8000000000000D-01  6.0979323383252D-01  7.3166459135413D-01
    80  7.9000000000000D-01  6.6435977990735D-01  6.9440878307910D-01
    81  8.0000000000000D-01  7.1955974573304D-01  6.5636010389179D-01
    82  8.1000000000000D-01  7.7509808954257D-01  6.1778541692816D-01
    83  8.2000000000000D-01  8.3067600704183D-01  5.7895409711098D-01
    84  8.3000000000000D-01  8.8599265084981D-01  5.4013637855109D-01
    85  8.4000000000000D-01  9.4074686204051D-01  5.0160169720815D-01
    86  8.5000000000000D-01  9.9463890329546D-01  4.6361703917699D-01
    87  8.6000000000000D-01  1.0473721831541D+00  4.2644530494886D-01
    88  8.7000000000000D-01  1.0986549608935D+00  3.9034369991364D-01
    89  8.8000000000000D-01  1.1482020216804D+00  3.5556216121893D-01
    90  8.9000000000000D-01  1.1957363118144D+00  3.2234183088593D-01
    91  9.0000000000000D-01  1.2409905241261D+00  2.9091358480068D-01
    92  9.1000000000000D-01  1.2837086238991D+00  2.6149662685483D-01
    93  9.2000000000000D-01  1.3236473060531D+00  2.3429715710393D-01
    94  9.3000000000000D-01  1.3605773747583D+00  2.0950712234610D-01
    95  9.4000000000000D-01  1.3942850371322D+00  1.8730305700231D-01
    96  9.5000000000000D-01  1.4245731032176D+00  1.6784502160538D-01
    97  9.6000000000000D-01  1.4512620850278D+00  1.5127564558021D-01
    98  9.7000000000000D-01  1.4741911880874D+00  1.3771928033054D-01
    99  9.8000000000000D-01  1.4932191895858D+00  1.2728126792743D-01
   100  9.9000000000000D-01  1.5082251979686D+00  1.2004732996588D-01
   101  1.0000000000000D+00  1.5191092895616D+00  1.1608308035993D-01
   102  1.0100000000000D+00  1.5257930186061D+00  1.1543366504595D-01
   103  1.0200000000000D+00  1.5282197978888D+00  1.1812353074037D-01
   104  1.0300000000000D+00  1.5263551479813D+00  1.2415632405457D-01
   105  1.0400000000000D+00  1.5201868139519D+00  1.3351492141034D-01
   106  1.0500000000000D+00  1.5097247492589D+00  1.4616158934548D-01
   107  1.0600000000000D+00  1.4950009673595D+00  1.6203827397136D-01
   108  1.0700000000000D+00  1.4760692624728D+00  1.8106701743939D-01
   109  1.0800000000000D+00  1.4530048017208D+00  2.0315049849164D-01
   110  1.0900000000000D+00  1.4259035917308D+00  2.2817269331826D-01
   111  1.1000000000000D+00  1.3948818235606D+00  2.5599965217814D-01
   112  1.1100000000000D+00  1.3600751005652D+00  2.8648038649448D-01
   113  1.1200000000000D+00  1.3216375546360D+00  3.1944786034693D-01
   114  1.1300000000000D+00  1.2797408568826D+00  3.5472007966070D-01
   115  1.1400000000000D+00  1.2345731295497D+00  3.9210127170222D-01
   116  1.1500000000000D+00  1.1863377664683D+00  4.3138314700391D-01
   117  1.1600000000000D+00  1.1352521700765D+00  4.7234623514923D-01
   118  1.1700000000000D+00  1.0815464134393D+00  5.1476128548407D-01
   119  1.1800000000000D+00  1.0254618361778D+00  5.5839072338236D-01
   120  1.1900000000000D+00  9.6724958359906D-01  6.0299015234874D-01
   121  1.2000000000000D+00  9.0716909871610D-01  6.4830989189792D-01
   122  1.2100000000000D+00  8.4548657704469D-01  6.9409654100504D-01
   123  1.2200000000000D+00  7.8247339424310D-01  7.4009455676741D-01
   124  1.2300000000000D+00  7.1840451688550D-01  7.8604783777586D-01
   125  1.2400000000000D+00  6.5355690661136D-01  8.3170130179047D-01
   126  1.2500000000000D+00  5.8820792792240D-01  8.7680244732586D-01
   127  1.2600000000000D+00  5.2263376987070D-01  9.2110288884969D-01
   128  1.2700000000000D+00  4.5710789159132D-01  9.6435985566370D-01
   129  1.2800000000000D+00  3.9189950152062D-01  1.0063376446768D+00
   130  1.2900000000000D+00  3.2727207993009D-01  1.0468090175617D+00
   131  1.3000000000000D+00  2.6348195373463D-01  1.0855565335521D+00
   132  1.3100000000000D+00  2.0077693248798D-01  1.1223738091880D+00
   133  1.3200000000000D+00  1.3939501394902D-01  1.1570666969349D+00
   134  1.3300000000000D+00  7.9563166565225D-02  1.1894543757323D+00
   135  1.3400000000000D+00  2.1496196543766D-02  1.2193703461790D+00
   136  1.3500000000000D+00 -3.4604294095199D-02  1.2466633244667D+00
   137  1.3600000000000D+00 -8.8550853148350D-02  1.2711980302930D+00
   138  1.3700000000000D+00 -1.4017102123053D-01  1.2928558629583D+00
   139  1.3800000000000D+00 -1.8930806885496D-01  1.3115354630707D+00
   140  1.3900000000000D+00 -2.3582162346384D-01  1.3271531563790D+00
   141  1.4000000000000D+00 -2.7958818301367D-01  1.3396432770544D+00
   142  1.4100000000000D+00 -3.2050151538111D-01  1.3489583705142D+00
   143  1.4200000000000D+00 -3.5847294065122D-01  1.3550692735866D+00
   144  1.4300000000000D+00 -3.9343149714026D-01  1.3579650737705D+00
   145  1.4400000000000D+00 -4.2532399118430D-01  1.3576529484653D+00
   146  1.4500000000000D+00 -4.5411493097515D-01  1.3541578853411D+00
   147  1.4600000000000D+00 -4.7978634834885D-01  1.3475222887020D+00
   148  1.4700000000000D+00 -5.0233750871051D-01  1.3378054729179D+00
   149  1.4800000000000D+00 -5.2178451497323D-01  1.3250830497834D+00
   150  1.4900000000000D+00 -5.3815980805682D-01  1.3094462132680D+00
   151  1.5000000000000D+00 -5.5151156935930D-01  1.2910009280493D+00
   152  1.5100000000000D+00 -5.6190303121910D-01  1.2698670287540D+00
   153  1.5200000000000D+00 -5.6941169996803D-01  1.2461772355083D+00
   154  1.5300000000000D+00 -5.7412850040887D-01  1.2200760954554D+00
   155  1.5400000000000D+00 -5.7615684623888D-01  1.1917188557988D+00
   156  1.5500000000000D+00 -5.7561164645782D-01  1.1612702791420D+00
   157  1.5600000000000D+00 -5.7261825362344D-01  1.1289034079808D+00
   158  1.5700000000000D+00 -5.6731136364876D-01  1.0947982887489D+00
   159  1.5800000000000D+00 -5.5983387460453D-01  1.0591406637299D+00
   160  1.5900000000000D+00 -5.5033571383833D-01  1.0221206408774D+00
   161  1.6000000000000D+00 -5.3897264163978D-01  9.8393135040553D-01
   162  1.6100000000000D+00 -5.2590504080436D-01  9.4476759828668D-01
   163  1.6200000000000D+00 -5.1129670009711D-01  9.0482452501957D-01
   164  1.6300000000000D+00 -4.9531360147515D-01  8.6429628038448D-01
   165  1.6400000000000D+00 -4.7812271787152D-01  8.2337472103845D-01
   166  1.6500000000000D+00 -4.5989083186714D-01  7.8224814081504D-01
   167  1.6600000000000D+00 -4.4078338297183D-01  7.4110005068492D-01
   168  1.6700000000000D+00 -4.2096334345237D-01  7.0010797284945D-01
   169  1.6800000000000D+00 -4.0059016184781D-01  6.5944239246739D-01
   170  1.6900000000000D+00 -3.7981871896175D-01  6.1926563529559D-01
   171  1.7000000000000D+00 -3.5879832565770D-01  5.7973072378931D-01
   172  1.7100000000000D+00 -3.3767191455813D-01  5.4098088688328D-01
   173  1.7200000000000D+00 -3.1657527326214D-01  5.0314906592385D-01
   174  1.7300000000000D+00 -2.9563640391903D-01  4.6635753649358D-01
   175  1.7400000000000D+00 -2.7497499884002D-01  4.3071780159660D-01
   176  1.7500000000000D+00 -2.5470189188717D-01  3.9633007204565D-01
   177  1.7600000000000D+00 -2.3491859051223D-01  3.6328280084872D-01
   178  1.7700000000000D+00 -2.1571692616599D-01  3.3165246907851D-01
   179  1.7800000000000D+00 -1.9717877838572D-01  3.0150341248581D-01
   180  1.7900000000000D+00 -1.7937589215651D-01  2.7288775144600D-01
   181  1.8000000000000D+00 -1.6236978171330D-01  2.4584542101209D-01
   182  1.8100000000000D+00 -1.4621172295716D-01  2.2040429547080D-01
   183  1.8200000000000D+00 -1.3094283110433D-01  1.9658040685485D-01
   184  1.8300000000000D+00 -1.1659422096385D-01  1.7437825332905D-01
   185  1.8400000000000D+00 -1.0318724976192D-01  1.5379119683034D-01
   186  1.8500000000000D+00 -9.0733833030571D-02  1.3480193939173D-01
   187  1.8600000000000D+00 -7.9236838191362D-02  1.1738308244318D-01
   188  1.8700000000000D+00 -6.8690539785329D-02  1.0149775170722D-01
   189  1.8800000000000D+00 -5.9081144128478D-02  8.7100295166760D-02
   190  1.8900000000000D+00 -5.0387364806951D-02  7.4137034213572D-02
   191  1.9000000000000D+00 -4.2581054147831D-02  6.2547072562182D-02
   192  1.9100000000000D+00 -3.5627876171115D-02  5.2263147420353D-02
   193  1.9200000000000D+00 -2.9488018919371D-02  4.3212519938869D-02
   194  1.9300000000000D+00 -2.4116937899339D-02  3.5317895863968D-02
   195  1.9400000000000D+00 -1.9466122598216D-02  2.8498367459439D-02
   196  1.9500000000000D+00 -1.5483880640462D-02  2.2670370250562D-02
   197  1.9600000000000D+00 -1.2116131191060D-02  1.7748645793917D-02
   198  1.9700000000000D+00 -9.3071993964082D-03  1.3647200652232D-02
   199  1.9800000000000D+00 -7.0006077939755D-03  1.0280257683796D-02
   200  1.9900000000000D+00 -5.1398527951143D-03  7.5631859909308D-03
   201  2.0000000000000D+00 -3.6691634700422D-03  5.4134066863085D-03
   202  2.0100000000000D+00 -2.5342347748781D-03  3.7512657620208D-03
   203  2.0200000000000D+00 -1.6829236268567D-03  2.5008611100984D-03
   204  2.0300000000000D+00 -1.0659147084189D-03  1.5908315187889D-03
   205  2.0400000000000D+00 -6.3735855371224D-04  9.5510503603866D-04
   206  2.0500000000000D+00 -3.5534290012915D-04  5.3348182169460D-04
   207  2.0600000000000D+00 -1.8245240512967D-04  2.7229256329568D-04
   208  2.0700000000000D+00 -8.6321254163417D-05  1.2504542568612D-04
   209  2.0800000000000D+00 -4.0111809770592D-05  5.2749234375930D-05
   210  2.0900000000000D+00 -2.2715649178522D-05  2.4476524810851D-05
   211  2.1000000000000D+00 -1.8146003855681D-05  1.7035818180494D-05
   212  2.1100000000000D+00 -1.5643517790651D-05  1.4842518858088D-05
   213  2.1200000000000D+00 -9.6041993128320D-06  9.4547812974912D-06
   214  2.1300000000000D+00 -2.3951404246678D-06  2.4411934946849D-06
   215  2.1400000000000D+00  1.5093515285324D-06 -1.4667093794745D-06
   216  2.1500000000000D+00  1.5246710319890D-06 -1.4991638366887D-06
   217  2.1600000000000D+00 -3.0695921193103D-08  2.6856751527631D-08
   218  2.1700000000000D+00 -3.4265805834560D-07  2.9810940737010D-07
   219  2.1800000000000D+00 -1.8992311735998D-07  1.6446963926229D-07
   220  2.1900000000000D+00  2.7255159648356D-08 -2.5754127804129D-08
   221  2.2000000000000D+00  4.4617427830887D-08 -4.2160198416502D-08
   222  2.2100000000000D+00  8.1586606086286D-09 -7.7093361673925D-09
   223  2.2200000000000D+00  0.0000000000000D+00  0.0000000000000D+00
   224  2.2300000000000D+00  0.0000000000000D+00  0.0000000000000D+00
   225  2.2400000000000D+00  0.0000000000000D+00  0.0000000000000D+00
   226  2.2500000000000D+00  0.0000000000000D+00  0.0000000000000D+00
   227  2.2600000000000D+00  0.0000000000000D+00  0.0000000000000D+00
   228  2.2700000000000D+00  0.0000000000000D+00  0.0000000000000D+00
   229  2.2800000000000D+00  0.0000000000000D+00  0.0000000000000D+00
   230  2.2900000000000D+00  0.0000000000000D+00  0.0000000000000D+00
   231  2.3000000000000D+00  0.0000000000000D+00  0.0000000000000D+00
   232  2.3100000000000D+00  0.0000000000000D+00  0.0000000000000D+00
   233  2.3200000000000D+00  0.0000000000000D+00  0.0000000000000D+00
   234  2.3300000000000D+00  0.0000000000000D+00  0.0000000000000D+00
   235  2.3400000000000D+00  0.0000000000000D+00  0.0000000000000D+00
   236  2.3500000000000D+00  0.0000000000000D+00  0.0000000000000D+00
   237  2.3600000000000D+00  0.0000000000000D+00  0.0000000000000D+00
   238  2.3700000000000D+00  0.0000000000000D+00  0.0000000000000D+00
   239  2.3800000000000D+00  0.0000000000000D+00  0.0000000000000D+00
   240  2.3900000000000D+00  0.0000000000000D+00  0.0000000000000D+00
   241  2.4000000000000D+00  0.0000000000000D+00  0.0000000000000D+00
   242  2.4100000000000D+00  0.0000000000000D+00  0.0000000000000D+00
   243  2.4200000000000D+00  0.0000000000000D+00  0.0000000000000D+00
   244  2.4300000000000D+00  0.0000000000000D+00  0.0000000000000D+00
   245  2.4400000000000D+00  0.0000000000000D+00  0.0000000000000D+00
   246  2.4500000000000D+00  0.0000000000000D+00  0.0000000000000D+00
   247  2.4600000000000D+00  0.0000000000000D+00  0.0000000000000D+00
   248  2.4700000000000D+00  0.0000000000000D+00  0.0000000000000D+00
   249  2.4800000000000D+00  0.0000000000000D+00  0.0000000000000D+00
   250  2.4900000000000D+00  0.0000000000000D+00  0.0000000000000D+00
   251  2.5000000000000D+00  0.0000000000000D+00  0.0000000000000D+00
   252  2.5100000000000D+00  0.0000000000000D+00  0.0000000000000D+00
   253  2.5200000000000D+00  0.0000000000000D+00  0.0000000000000D+00
   254  2.5300000000000D+00  0.0000000000000D+00  0.0000000000000D+00
   255  2.5400000000000D+00  0.0000000000000D+00  0.0000000000000D+00
   256  2.5500000000000D+00  0.0000000000000D+00  0.0000000000000D+00
   257  2.5600000000000D+00  0.0000000000000D+00  0.0000000000000D+00
   258  2.5700000000000D+00  0.0000000000000D+00  0.0000000000000D+00
   259  2.5800000000000D+00  0.0000000000000D+00  0.0000000000000D+00
   260  2.5900000000000D+00  0.0000000000000D+00  0.0000000000000D+00
   261  2.6000000000000D+00  0.0000000000000D+00  0.0000000000000D+00
   262  2.6100000000000D+00  0.0000000000000D+00  0.0000000000000D+00
   263  2.6200000000000D+00  0.0000000000000D+00  0.0000000000000D+00
   264  2.6300000000000D+00  0.0000000000000D+00  0.0000000000000D+00
   265  2.6400000000000D+00  0.0000000000000D+00  0.0000000000000D+00
   266  2.6500000000000D+00  0.0000000000000D+00  0.0000000000000D+00
   267  2.6600000000000D+00  0.0000000000000D+00  0.0000000000000D+00
   268  2.6700000000000D+00  0.0000000000000D+00  0.0000000000000D+00
   269  2.6800000000000D+00  0.0000000000000D+00  0.0000000000000D+00
   270  2.6900000000000D+00  0.0000000000000D+00  0.0000000000000D+00
   271  2.7000000000000D+00  0.0000000000000D+00  0.0000000000000D+00
   272  2.7100000000000D+00  0.0000000000000D+00  0.0000000000000D+00
   273  2.7200000000000D+00  0.0000000000000D+00  0.0000000000000D+00
   274  2.7300000000000D+00  0.0000000000000D+00  0.0000000000000D+00
   275  2.7400000000000D+00  0.0000000000000D+00  0.0000000000000D+00
   276  2.7500000000000D+00  0.0000000000000D+00  0.0000000000000D+00
   277  2.7600000000000D+00  0.0000000000000D+00  0.0000000000000D+00
   278  2.7700000000000D+00  0.0000000000000D+00  0.0000000000000D+00
   279  2.7800000000000D+00  0.0000000000000D+00  0.0000000000000D+00
   280  2.7900000000000D+00  0.0000000000000D+00  0.0000000000000D+00
   281  2.8000000000000D+00  0.0000000000000D+00  0.0000000000000D+00
   282  2.8100000000000D+00  0.0000000000000D+00  0.0000000000000D+00
   283  2.8200000000000D+00  0.0000000000000D+00  0.0000000000000D+00
   284  2.8300000000000D+00  0.0000000000000D+00  0.0000000000000D+00
   285  2.8400000000000D+00  0.0000000000000D+00  0.0000000000000D+00
   286  2.8500000000000D+00  0.0000000000000D+00  0.0000000000000D+00
   287  2.8600000000000D+00  0.0000000000000D+00  0.0000000000000D+00
   288  2.8700000000000D+00  0.0000000000000D+00  0.0000000000000D+00
   289  2.8800000000000D+00  0.0000000000000D+00  0.0000000000000D+00
   290  2.8900000000000D+00  0.0000000000000D+00  0.0000000000000D+00
   291  2.9000000000000D+00  0.0000000000000D+00  0.0000000000000D+00
   292  2.9100000000000D+00  0.0000000000000D+00  0.0000000000000D+00
   293  2.9200000000000D+00  0.0000000000000D+00  0.0000000000000D+00
   294  2.9300000000000D+00  0.0000000000000D+00  0.0000000000000D+00
   295  2.9400000000000D+00  0.0000000000000D+00  0.0000000000000D+00
   296  2.9500000000000D+00  0.0000000000000D+00  0.0000000000000D+00
   297  2.9600000000000D+00  0.0000000000000D+00  0.0000000000000D+00
   298  2.9700000000000D+00  0.0000000000000D+00  0.0000000000000D+00
   299  2.9800000000000D+00  0.0000000000000D+00  0.0000000000000D+00
   300  2.9900000000000D+00  0.0000000000000D+00  0.0000000000000D+00
   301  3.0000000000000D+00  0.0000000000000D+00  0.0000000000000D+00
   302  3.0100000000000D+00  0.0000000000000D+00  0.0000000000000D+00
   303  3.0200000000000D+00  0.0000000000000D+00  0.0000000000000D+00
   304  3.0300000000000D+00  0.0000000000000D+00  0.0000000000000D+00
   305  3.0400000000000D+00  0.0000000000000D+00  0.0000000000000D+00
   306  3.0500000000000D+00  0.0000000000000D+00  0.0000000000000D+00
   307  3.0600000000000D+00  0.0000000000000D+00  0.0000000000000D+00
   308  3.0700000000000D+00  0.0000000000000D+00  0.0000000000000D+00
   309  3.0800000000000D+00  0.0000000000000D+00  0.0000000000000D+00
   310  3.0900000000000D+00  0.0000000000000D+00  0.0000000000000D+00
   311  3.1000000000000D+00  0.0000000000000D+00  0.0000000000000D+00
   312  3.1100000000000D+00  0.0000000000000D+00  0.0000000000000D+00
   313  3.1200000000000D+00  0.0000000000000D+00  0.0000000000000D+00
   314  3.1300000000000D+00  0.0000000000000D+00  0.0000000000000D+00
   315  3.1400000000000D+00  0.0000000000000D+00  0.0000000000000D+00
   316  3.1500000000000D+00  0.0000000000000D+00  0.0000000000000D+00
   317  3.1600000000000D+00  0.0000000000000D+00  0.0000000000000D+00
   318  3.1700000000000D+00  0.0000000000000D+00  0.0000000000000D+00
   319  3.1800000000000D+00  0.0000000000000D+00  0.0000000000000D+00
   320  3.1900000000000D+00  0.0000000000000D+00  0.0000000000000D+00
   321  3.2000000000000D+00  0.0000000000000D+00  0.0000000000000D+00
   322  3.2100000000000D+00  0.0000000000000D+00  0.0000000000000D+00
   323  3.2200000000000D+00  0.0000000000000D+00  0.0000000000000D+00
   324  3.2300000000000D+00  0.0000000000000D+00  0.0000000000000D+00
   325  3.2400000000000D+00  0.0000000000000D+00  0.0000000000000D+00
   326  3.2500000000000D+00  0.0000000000000D+00  0.0000000000000D+00
   327  3.2600000000000D+00  0.0000000000000D+00  0.0000000000000D+00
   328  3.2700000000000D+00  0.0000000000000D+00  0.0000000000000D+00
   329  3.2800000000000D+00  0.0000000000000D+00  0.0000000000000D+00
   330  3.2900000000000D+00  0.0000000000000D+00  0.0000000000000D+00
   331  3.3000000000000D+00  0.0000000000000D+00  0.0000000000000D+00
   332  3.3100000000000D+00  0.0000000000000D+00  0.0000000000000D+00
   333  3.3200000000000D+00  0.0000000000000D+00  0.0000000000000D+00
   334  3.3300000000000D+00  0.0000000000000D+00  0.0000000000000D+00
   335  3.3400000000000D+00  0.0000000000000D+00  0.0000000000000D+00
   336  3.3500000000000D+00  0.0000000000000D+00  0.0000000000000D+00
   337  3.3600000000000D+00  0.0000000000000D+00  0.0000000000000D+00
   338  3.3700000000000D+00  0.0000000000000D+00  0.0000000000000D+00
   339  3.3800000000000D+00  0.0000000000000D+00  0.0000000000000D+00
   340  3.3900000000000D+00  0.0000000000000D+00  0.0000000000000D+00
   341  3.4000000000000D+00  0.0000000000000D+00  0.0000000000000D+00
   342  3.4100000000000D+00  0.0000000000000D+00  0.0000000000000D+00
   343  3.4200000000000D+00  0.0000000000000D+00  0.0000000000000D+00
   344  3.4300000000000D+00  0.0000000000000D+00  0.0000000000000D+00
   345  3.4400000000000D+00  0.0000000000000D+00  0.0000000000000D+00
   346  3.4500000000000D+00  0.0000000000000D+00  0.0000000000000D+00
   347  3.4600000000000D+00  0.0000000000000D+00  0.0000000000000D+00
   348  3.4700000000000D+00  0.0000000000000D+00  0.0000000000000D+00
   349  3.4800000000000D+00  0.0000000000000D+00  0.0000000000000D+00
   350  3.4900000000000D+00  0.0000000000000D+00  0.0000000000000D+00
   351  3.5000000000000D+00  0.0000000000000D+00  0.0000000000000D+00
   352  3.5100000000000D+00  0.0000000000000D+00  0.0000000000000D+00
   353  3.5200000000000D+00  0.0000000000000D+00  0.0000000000000D+00
   354  3.5300000000000D+00  0.0000000000000D+00  0.0000000000000D+00
   355  3.5400000000000D+00  0.0000000000000D+00  0.0000000000000D+00
   356  3.5500000000000D+00  0.0000000000000D+00  0.0000000000000D+00
   357  3.5600000000000D+00  0.0000000000000D+00  0.0000000000000D+00
   358  3.5700000000000D+00  0.0000000000000D+00  0.0000000000000D+00
   359  3.5800000000000D+00  0.0000000000000D+00  0.0000000000000D+00
   360  3.5900000000000D+00  0.0000000000000D+00  0.0000000000000D+00
   361  3.6000000000000D+00  0.0000000000000D+00  0.0000000000000D+00
   362  3.6100000000000D+00  0.0000000000000D+00  0.0000000000000D+00
   363  3.6200000000000D+00  0.0000000000000D+00  0.0000000000000D+00
   364  3.6300000000000D+00  0.0000000000000D+00  0.0000000000000D+00
   365  3.6400000000000D+00  0.0000000000000D+00  0.0000000000000D+00
   366  3.6500000000000D+00  0.0000000000000D+00  0.0000000000000D+00
   367  3.6600000000000D+00  0.0000000000000D+00  0.0000000000000D+00
   368  3.6700000000000D+00  0.0000000000000D+00  0.0000000000000D+00
   369  3.6800000000000D+00  0.0000000000000D+00  0.0000000000000D+00
   370  3.6900000000000D+00  0.0000000000000D+00  0.0000000000000D+00
   371  3.7000000000000D+00  0.0000000000000D+00  0.0000000000000D+00
   372  3.7100000000000D+00  0.0000000000000D+00  0.0000000000000D+00
   373  3.7200000000000D+00  0.0000000000000D+00  0.0000000000000D+00
   374  3.7300000000000D+00  0.0000000000000D+00  0.0000000000000D+00
   375  3.7400000000000D+00  0.0000000000000D+00  0.0000000000000D+00
   376  3.7500000000000D+00  0.0000000000000D+00  0.0000000000000D+00
   377  3.7600000000000D+00  0.0000000000000D+00  0.0000000000000D+00
   378  3.7700000000000D+00  0.0000000000000D+00  0.0000000000000D+00
   379  3.7800000000000D+00  0.0000000000000D+00  0.0000000000000D+00
   380  3.7900000000000D+00  0.0000000000000D+00  0.0000000000000D+00
   381  3.8000000000000D+00  0.0000000000000D+00  0.0000000000000D+00
   382  3.8100000000000D+00  0.0000000000000D+00  0.0000000000000D+00
   383  3.8200000000000D+00  0.0000000000000D+00  0.0000000000000D+00
   384  3.8300000000000D+00  0.0000000000000D+00  0.0000000000000D+00
   385  3.8400000000000D+00  0.0000000000000D+00  0.0000000000000D+00
   386  3.8500000000000D+00  0.0000000000000D+00  0.0000000000000D+00
   387  3.8600000000000D+00  0.0000000000000D+00  0.0000000000000D+00
   388  3.8700000000000D+00  0.0000000000000D+00  0.0000000000000D+00
   389  3.8800000000000D+00  0.0000000000000D+00  0.0000000000000D+00
   390  3.8900000000000D+00  0.0000000000000D+00  0.0000000000000D+00
   391  3.9000000000000D+00  0.0000000000000D+00  0.0000000000000D+00
   392  3.9100000000000D+00  0.0000000000000D+00  0.0000000000000D+00
   393  3.9200000000000D+00  0.0000000000000D+00  0.0000000000000D+00
   394  3.9300000000000D+00  0.0000000000000D+00  0.0000000000000D+00
   395  3.9400000000000D+00  0.0000000000000D+00  0.0000000000000D+00
   396  3.9500000000000D+00  0.0000000000000D+00  0.0000000000000D+00
   397  3.9600000000000D+00  0.0000000000000D+00  0.0000000000000D+00
   398  3.9700000000000D+00  0.0000000000000D+00  0.0000000000000D+00
   399  3.9800000000000D+00  0.0000000000000D+00  0.0000000000000D+00
   400  3.9900000000000D+00  0.0000000000000D+00  0.0000000000000D+00
   401  4.0000000000000D+00  0.0000000000000D+00  0.0000000000000D+00
   402  4.0100000000000D+00  0.0000000000000D+00  0.0000000000000D+00
   403  4.0200000000000D+00  0.0000000000000D+00  0.0000000000000D+00
   404  4.0300000000000D+00  0.0000000000000D+00  0.0000000000000D+00
   405  4.0400000000000D+00  0.0000000000000D+00  0.0000000000000D+00
   406  4.0500000000000D+00  0.0000000000000D+00  0.0000000000000D+00
   407  4.0600000000000D+00  0.0000000000000D+00  0.0000000000000D+00
   408  4.0700000000000D+00  0.0000000000000D+00  0.0000000000000D+00
   409  4.0800000000000D+00  0.0000000000000D+00  0.0000000000000D+00
   410  4.0900000000000D+00  0.0000000000000D+00  0.0000000000000D+00
   411  4.1000000000000D+00  0.0000000000000D+00  0.0000000000000D+00
   412  4.1100000000000D+00  0.0000000000000D+00  0.0000000000000D+00
   413  4.1200000000000D+00  0.0000000000000D+00  0.0000000000000D+00
   414  4.1300000000000D+00  0.0000000000000D+00  0.0000000000000D+00
   415  4.1400000000000D+00  0.0000000000000D+00  0.0000000000000D+00
   416  4.1500000000000D+00  0.0000000000000D+00  0.0000000000000D+00
   417  4.1600000000000D+00  0.0000000000000D+00  0.0000000000000D+00
   418  4.1700000000000D+00  0.0000000000000D+00  0.0000000000000D+00
   419  4.1800000000000D+00  0.0000000000000D+00  0.0000000000000D+00
   420  4.1900000000000D+00  0.0000000000000D+00  0.0000000000000D+00
   421  4.2000000000000D+00  0.0000000000000D+00  0.0000000000000D+00
   422  4.2100000000000D+00  0.0000000000000D+00  0.0000000000000D+00