In    ONCVPSP-3.3.0  r_core=   1.60261   1.60261   1.70110
     49.0000     21.0000      220408    zatom,zion,pspd
     8       2   2     4   600     0    pspcod,pspxc,lmax,lloc,mmax,r2well
  5.99000000  0.00000000  0.00000000    rchrg fchrg qchrg
     2     2     2     0     0    nproj
     1     1           extension_switch
   0                         8.3487549449848D+00 -5.0840665448548D-01
     1  0.0000000000000D+00  8.8047014124015D-11  6.0637680987519D-10
     2  1.0000000000000D-02  8.8968567855843D-02  7.6297974336725D-03
     3  2.0000000000000D-02  1.7769400334646D-01  1.5310937871207D-02
     4  3.0000000000000D-02  2.6593386220575D-01  2.3093952916794D-02
     5  4.0000000000000D-02  3.5344707580314D-01  3.1027763266780D-02
     6  5.0000000000000D-02  4.3999463753151D-01  3.9158902828185D-02
     7  6.0000000000000D-02  5.2534028741543D-01  4.7530777888395D-02
     8  7.0000000000000D-02  6.0925119424113D-01  5.6182972299148D-02
     9  8.0000000000000D-02  6.9149863442141D-01  6.5150609031551D-02
    10  9.0000000000000D-02  7.7185866670168D-01  7.4463777714780D-02
    11  1.0000000000000D-01  8.5011280168859D-01  8.4147036898383D-02
    12  1.1000000000000D-01  9.2604866504284D-01  9.4218998787433D-02
    13  1.2000000000000D-01  9.9946065302506D-01  1.0469200310313D-01
    14  1.3000000000000D-01  1.0701505789211D+00  1.1557188553227D-01
    15  1.4000000000000D-01  1.1379283087026D+00  1.2685784496204D-01
    16  1.5000000000000D-01  1.2026123841058D+00  1.3854241236701D-01
    17  1.6000000000000D-01  1.2640306311344D+00  1.5061152283999D-01
    18  1.7000000000000D-01  1.3220207518223D+00  1.6304469085400D-01
    19  1.8000000000000D-01  1.3764308969238D+00  1.7581528742684D-01
    20  1.9000000000000D-01  1.4271202170428D+00  1.8889091645032D-01
    21  2.0000000000000D-01  1.4739593895661D+00  2.0223388606063D-01
    22  2.1000000000000D-01  1.5168311186402D+00  2.1580176958217D-01
    23  2.2000000000000D-01  1.5556306053202D+00  2.2954804929194D-01
    24  2.3000000000000D-01  1.5902659849322D+00  2.4342283504148D-01
    25  2.4000000000000D-01  1.6206587286314D+00  2.5737364865375D-01
    26  2.5000000000000D-01  1.6467440061013D+00  2.7134626399958D-01
    27  2.6000000000000D-01  1.6684710063399D+00  2.8528559176358D-01
    28  2.7000000000000D-01  1.6858032135029D+00  2.9913659714746D-01
    29  2.8000000000000D-01  1.6987186348412D+00  3.1284523813846D-01
    30  2.9000000000000D-01  1.7072099778642D+00  3.2635941150229D-01
    31  3.0000000000000D-01  1.7112847739962D+00  3.3962989335052D-01
    32  3.1000000000000D-01  1.7109654461635D+00  3.5261126098757D-01
    33  3.2000000000000D-01  1.7062893179555D+00  3.6526278276548D-01
    34  3.3000000000000D-01  1.6973085622469D+00  3.7754926286805D-01
    35  3.4000000000000D-01  1.6840900874482D+00  3.8944182830801D-01
    36  3.5000000000000D-01  1.6667153598588D+00  4.0091864595030D-01
    37  3.6000000000000D-01  1.6452801609480D+00  4.1196555806620D-01
    38  3.7000000000000D-01  1.6198942787579D+00  4.2257662577051D-01
    39  3.8000000000000D-01  1.5906811330254D+00  4.3275457068863D-01
    40  3.9000000000000D-01  1.5577773340483D+00  4.4251110633288D-01
    41  4.0000000000000D-01  1.5213321757629D+00  4.5186715192332D-01
    42  4.1000000000000D-01  1.4815070639662D+00  4.6085292275700D-01
    43  4.2000000000000D-01  1.4384748810925D+00  4.6950789269302D-01
    44  4.3000000000000D-01  1.3924192894362D+00  4.7788062586371D-01
    45  4.4000000000000D-01  1.3435339752049D+00  4.8602847632702D-01
    46  4.5000000000000D-01  1.2920218362704D+00  4.9401715602215D-01
    47  4.6000000000000D-01  1.2380941169708D+00  5.0192017306103D-01
    48  4.7000000000000D-01  1.1819694937867D+00  5.0981814406215D-01
    49  4.8000000000000D-01  1.1238731161691D+00  5.1779798588939D-01
    50  4.9000000000000D-01  1.0640356072324D+00  5.2595199377809D-01
    51  5.0000000000000D-01  1.0026920294351D+00  5.3437681439200D-01
    52  5.1000000000000D-01  9.4008082074935D-01  5.4317232383834D-01
    53  5.2000000000000D-01  8.7644270716257D-01  5.5244042205633D-01
    54  5.3000000000000D-01  8.1201959766259D-01  5.6228375626716D-01
    55  5.4000000000000D-01  7.4705346811507D-01  5.7280438731333D-01
    56  5.5000000000000D-01  6.8178524065933D-01  5.8410241371030D-01
    57  5.6000000000000D-01  6.1645366541157D-01  5.9627456906306D-01
    58  5.7000000000000D-01  5.5129421137680D-01  6.0941280915879D-01
    59  5.8000000000000D-01  4.8653797352647D-01  6.2360290551855D-01
    60  5.9000000000000D-01  4.2241060299889D-01  6.3892306247069D-01
    61  6.0000000000000D-01  3.5913126732002D-01  6.5544257488757D-01
    62  6.1000000000000D-01  2.9691164742519D-01  6.7322054360433D-01
    63  6.2000000000000D-01  2.3595497808546D-01  6.9230466520888D-01
    64  6.3000000000000D-01  1.7645513810688D-01  7.1273011235788D-01
    65  6.4000000000000D-01  1.1859579638012D-01  7.3451852004224D-01
    66  6.5000000000000D-01  6.2549619508591D-02  7.5767709229185D-01
    67  6.6000000000000D-01  8.4775463427182D-03  7.8219784269336D-01
    68  6.7000000000000D-01 -4.3471865701741D-02  8.0805698080476D-01
    69  6.8000000000000D-01 -9.3163018163709D-02  8.3521445508579D-01
    70  6.9000000000000D-01 -1.4047376905716D-01  8.6361366135958D-01
    71  7.0000000000000D-01 -1.8529584713259D-01  8.9318132408205D-01
    72  7.1000000000000D-01 -2.2753518023333D-01  9.2382755584034D-01
    73  7.2000000000000D-01 -2.6711213574177D-01  9.5544609855300D-01
    74  7.3000000000000D-01 -3.0396167177210D-01  9.8791474782805D-01
    75  7.4000000000000D-01 -3.3803339844702D-01  1.0210959598635D+00
    76  7.5000000000000D-01 -3.6929154928372D-01  1.0548376381846D+00
    77  7.6000000000000D-01 -3.9771486340859D-01  1.0889740954149D+00
    78  7.7000000000000D-01 -4.2329638001091D-01  1.1233271832043D+00
    79  7.8000000000000D-01 -4.4604314712625D-01  1.1577075814164D+00
    80  7.9000000000000D-01 -4.6597584750577D-01  1.1919162357254D+00
    81  8.0000000000000D-01 -4.8312834497108D-01  1.2257459309182D+00
    82  8.1000000000000D-01 -4.9754715526898D-01  1.2589829854593D+00
    83  8.2000000000000D-01 -5.0929084602052D-01  1.2914090512873D+00
    84  8.3000000000000D-01 -5.1842937089964D-01  1.3228030013737D+00
    85  8.4000000000000D-01 -5.2504334367093D-01  1.3529428863288D+00
    86  8.5000000000000D-01 -5.2922325816114D-01  1.3816079402827D+00
    87  8.6000000000000D-01 -5.3106866062907D-01  1.4085806154302D+00
    88  8.7000000000000D-01 -5.3068728132968D-01  1.4336486240133D+00
    89  8.8000000000000D-01 -5.2819413233867D-01  1.4566069661322D+00
    90  8.9000000000000D-01 -5.2371057890867D-01  1.4772599216422D+00
    91  9.0000000000000D-01 -5.1736339176779D-01  1.4954229844985D+00
    92  9.1000000000000D-01 -5.0928378784257D-01  1.5109247182713D+00
    93  9.2000000000000D-01 -4.9960646689081D-01  1.5236085121591D+00
    94  9.3000000000000D-01 -4.8846865146475D-01  1.5333342176738D+00
    95  9.4000000000000D-01 -4.7600913749348D-01  1.5399796472604D+00
    96  9.5000000000000D-01 -4.6236736257502D-01  1.5434419174179D+00
    97  9.6000000000000D-01 -4.4768249880771D-01  1.5436386204188D+00
    98  9.7000000000000D-01 -4.3209257666927D-01  1.5405088104359D+00
    99  9.8000000000000D-01 -4.1573364606737D-01  1.5340137918138D+00
   100  9.9000000000000D-01 -3.9873898026435D-01  1.5241376992314D+00
   101  1.0000000000000D+00 -3.8123832788877D-01  1.5108878617470D+00
   102  1.0100000000000D+00 -3.6335721772479D-01  1.4942949450127D+00
   103  1.0200000000000D+00 -3.4521632041200D-01  1.4744128683360D+00
   104  1.0300000000000D+00 -3.2693087059499D-01  1.4513184957238D+00
   105  1.0400000000000D+00 -3.0861015243899D-01  1.4251111025542D+00
   106  1.0500000000000D+00 -2.9035705079317D-01  1.3959116220044D+00
   107  1.0600000000000D+00 -2.7226766965692D-01  1.3638616777503D+00
   108  1.0700000000000D+00 -2.5443101890635D-01  1.3291224120317D+00
   109  1.0800000000000D+00 -2.3692876962734D-01  1.2918731203528D+00
   110  1.0900000000000D+00 -2.1983507772959D-01  1.2523097064050D+00
   111  1.1000000000000D+00 -2.0321647490793D-01  1.2106429728071D+00
   112  1.1100000000000D+00 -1.8713182542356D-01  1.1670967651544D+00
   113  1.1200000000000D+00 -1.7163234654766D-01  1.1219059887445D+00
   114  1.1300000000000D+00 -1.5676169001542D-01  1.0753145187161D+00
   115  1.1400000000000D+00 -1.4255608129320D-01  1.0275730257109D+00
   116  1.1500000000000D+00 -1.2904451307707D-01  9.7893674009877D-01
   117  1.1600000000000D+00 -1.1624898890648D-01  9.2966317883224D-01
   118  1.1700000000000D+00 -1.0418481250281D-01  8.8000985930298D-01
   119  1.1800000000000D+00 -9.2860918119243D-02  8.3023202484700D-01
   120  1.1900000000000D+00 -8.2280236936696D-02  7.8058040666621D-01
   121  1.2000000000000D+00 -7.2440094313817D-02  7.3129904650074D-01
   122  1.2100000000000D+00 -6.3332632626812D-02  6.8262320357657D-01
   123  1.2200000000000D+00 -5.4945254336873D-02  6.3477736906103D-01
   124  1.2300000000000D+00 -4.7261079886058D-02  5.8797340962104D-01
   125  1.2400000000000D+00 -4.0259415143345D-02  5.4240886018017D-01
   126  1.2500000000000D+00 -3.3916223165980D-02  4.9826538493489D-01
   127  1.2600000000000D+00 -2.8204595185785D-02  4.5570742363225D-01
   128  1.2700000000000D+00 -2.3095216070690D-02  4.1488103728312D-01
   129  1.2800000000000D+00 -1.8556819635766D-02  3.7591296643648D-01
   130  1.2900000000000D+00 -1.4556629459742D-02  3.3890991261600D-01
   131  1.3000000000000D+00 -1.1060781474407D-02  3.0395804941991D-01
   132  1.3100000000000D+00 -8.0347246275108D-03  2.7112276956498D-01
   133  1.3200000000000D+00 -5.4435964411110D-03  2.4044867047569D-01
   134  1.3300000000000D+00 -3.2525710644829D-03  2.1195977654278D-01
   135  1.3400000000000D+00 -1.4271771870133D-03  1.8565999745647D-01
   136  1.3500000000000D+00  6.6415810623274D-05  1.6153381595066D-01
   137  1.3600000000000D+00  1.2611444902693D-03  1.3954719544185D-01
   138  1.3700000000000D+00  2.1888323246738D-03  1.1964870047855D-01
   139  1.3800000000000D+00  2.8800046716523D-03  1.0177081320350D-01
   140  1.3900000000000D+00  3.3637380561769D-03  8.5831432591382D-02
   141  1.4000000000000D+00  3.6675434470378D-03  7.1735539643988D-02
   142  1.4100000000000D+00  3.8172820593743D-03  5.9377007021853D-02
   143  1.4200000000000D+00  3.8371131688987D-03  4.8640535484151D-02
   144  1.4300000000000D+00  3.7494717136246D-03  3.9403692305149D-02
   145  1.4400000000000D+00  3.5750740457185D-03  3.1539029941862D-02
   146  1.4500000000000D+00  3.3329497547660D-03  2.4916260422581D-02
   147  1.4600000000000D+00  3.0405084842178D-03  1.9404515158438D-02
   148  1.4700000000000D+00  2.7135750542032D-03  1.4874364688072D-02
   149  1.4800000000000D+00  2.3663147969549D-03  1.1199225274026D-02
   150  1.4900000000000D+00  2.0122936395441D-03  8.2619290466752D-03
   151  1.5000000000000D+00  1.6643316002769D-03  5.9555495937569D-03
   152  1.5100000000000D+00  1.3289310756127D-03  4.1588824963401D-03
   153  1.5200000000000D+00  1.0124646621067D-03  2.7664051683768D-03
   154  1.5300000000000D+00  7.3577741685221D-04  1.7573550081135D-03
   155  1.5400000000000D+00  5.1350672896544D-04  1.1003199985067D-03
   156  1.5500000000000D+00  3.4120470299701D-04  6.9420146709310D-04
   157  1.5600000000000D+00  2.1302748012345D-04  4.5171050707435D-04
   158  1.5700000000000D+00  1.2619654943521D-04  3.2100952806179D-04
   159  1.5800000000000D+00  7.6474192039128D-05  2.6717212604619D-04
   160  1.5900000000000D+00  5.8256544347741D-05  2.7026347624195D-04
   161  1.6000000000000D+00  5.1420019335229D-05  2.6173468456421D-04
   162  1.6100000000000D+00  3.0612918083416D-05  1.5741822100024D-04
   163  1.6200000000000D+00  3.9092696488022D-06  1.9995971422299D-05
   164  1.6300000000000D+00 -5.0191254085505D-06 -2.6374481985688D-05
   165  1.6400000000000D+00 -8.2312924135103D-07 -4.3305334587890D-06
   166  1.6500000000000D+00  1.1086584316239D-06  5.8811597424733D-06
   167  1.6600000000000D+00  1.5670937178265D-07  8.3321816213566D-07
   168  1.6700000000000D+00 -1.3723860748591D-07 -7.0094429551590D-07
   169  1.6800000000000D+00 -1.8936668411553D-08 -9.6718772817025D-08
   170  1.6900000000000D+00  0.0000000000000D+00  0.0000000000000D+00
   171  1.7000000000000D+00  0.0000000000000D+00  0.0000000000000D+00
   172  1.7100000000000D+00  0.0000000000000D+00  0.0000000000000D+00
   173  1.7200000000000D+00  0.0000000000000D+00  0.0000000000000D+00
   174  1.7300000000000D+00  0.0000000000000D+00  0.0000000000000D+00
   175  1.7400000000000D+00  0.0000000000000D+00  0.0000000000000D+00
   176  1.7500000000000D+00  0.0000000000000D+00  0.0000000000000D+00
   177  1.7600000000000D+00  0.0000000000000D+00  0.0000000000000D+00
   178  1.7700000000000D+00  0.0000000000000D+00  0.0000000000000D+00
   179  1.7800000000000D+00  0.0000000000000D+00  0.0000000000000D+00
   180  1.7900000000000D+00  0.0000000000000D+00  0.0000000000000D+00
   181  1.8000000000000D+00  0.0000000000000D+00  0.0000000000000D+00
   182  1.8100000000000D+00  0.0000000000000D+00  0.0000000000000D+00
   183  1.8200000000000D+00  0.0000000000000D+00  0.0000000000000D+00
   184  1.8300000000000D+00  0.0000000000000D+00  0.0000000000000D+00
   185  1.8400000000000D+00  0.0000000000000D+00  0.0000000000000D+00
   186  1.8500000000000D+00  0.0000000000000D+00  0.0000000000000D+00
   187  1.8600000000000D+00  0.0000000000000D+00  0.0000000000000D+00
   188  1.8700000000000D+00  0.0000000000000D+00  0.0000000000000D+00
   189  1.8800000000000D+00  0.0000000000000D+00  0.0000000000000D+00
   190  1.8900000000000D+00  0.0000000000000D+00  0.0000000000000D+00
   191  1.9000000000000D+00  0.0000000000000D+00  0.0000000000000D+00
   192  1.9100000000000D+00  0.0000000000000D+00  0.0000000000000D+00
   193  1.9200000000000D+00  0.0000000000000D+00  0.0000000000000D+00
   194  1.9300000000000D+00  0.0000000000000D+00  0.0000000000000D+00
   195  1.9400000000000D+00  0.0000000000000D+00  0.0000000000000D+00
   196  1.9500000000000D+00  0.0000000000000D+00  0.0000000000000D+00
   197  1.9600000000000D+00  0.0000000000000D+00  0.0000000000000D+00
   198  1.9700000000000D+00  0.0000000000000D+00  0.0000000000000D+00
   199  1.9800000000000D+00  0.0000000000000D+00  0.0000000000000D+00
   200  1.9900000000000D+00  0.0000000000000D+00  0.0000000000000D+00
   201  2.0000000000000D+00  0.0000000000000D+00  0.0000000000000D+00
   202  2.0100000000000D+00  0.0000000000000D+00  0.0000000000000D+00
   203  2.0200000000000D+00  0.0000000000000D+00  0.0000000000000D+00
   204  2.0300000000000D+00  0.0000000000000D+00  0.0000000000000D+00
   205  2.0400000000000D+00  0.0000000000000D+00  0.0000000000000D+00
   206  2.0500000000000D+00  0.0000000000000D+00  0.0000000000000D+00
   207  2.0600000000000D+00  0.0000000000000D+00  0.0000000000000D+00
   208  2.0700000000000D+00  0.0000000000000D+00  0.0000000000000D+00
   209  2.0800000000000D+00  0.0000000000000D+00  0.0000000000000D+00
   210  2.0900000000000D+00  0.0000000000000D+00  0.0000000000000D+00
   211  2.1000000000000D+00  0.0000000000000D+00  0.0000000000000D+00
   212  2.1100000000000D+00  0.0000000000000D+00  0.0000000000000D+00
   213  2.1200000000000D+00  0.0000000000000D+00  0.0000000000000D+00
   214  2.1300000000000D+00  0.0000000000000D+00  0.0000000000000D+00
   215  2.1400000000000D+00  0.0000000000000D+00  0.0000000000000D+00
   216  2.1500000000000D+00  0.0000000000000D+00  0.0000000000000D+00
   217  2.1600000000000D+00  0.0000000000000D+00  0.0000000000000D+00
   218  2.1700000000000D+00  0.0000000000000D+00  0.0000000000000D+00
   219  2.1800000000000D+00  0.0000000000000D+00  0.0000000000000D+00
   220  2.1900000000000D+00  0.0000000000000D+00  0.0000000000000D+00
   221  2.2000000000000D+00  0.0000000000000D+00  0.0000000000000D+00
   222  2.2100000000000D+00  0.0000000000000D+00  0.0000000000000D+00
   223  2.2200000000000D+00  0.0000000000000D+00  0.0000000000000D+00
   224  2.2300000000000D+00  0.0000000000000D+00  0.0000000000000D+00
   225  2.2400000000000D+00  0.0000000000000D+00  0.0000000000000D+00
   226  2.2500000000000D+00  0.0000000000000D+00  0.0000000000000D+00
   227  2.2600000000000D+00  0.0000000000000D+00  0.0000000000000D+00
   228  2.2700000000000D+00  0.0000000000000D+00  0.0000000000000D+00
   229  2.2800000000000D+00  0.0000000000000D+00  0.0000000000000D+00
   230  2.2900000000000D+00  0.0000000000000D+00  0.0000000000000D+00
   231  2.3000000000000D+00  0.0000000000000D+00  0.0000000000000D+00
   232  2.3100000000000D+00  0.0000000000000D+00  0.0000000000000D+00
   233  2.3200000000000D+00  0.0000000000000D+00  0.0000000000000D+00
   234  2.3300000000000D+00  0.0000000000000D+00  0.0000000000000D+00
   235  2.3400000000000D+00  0.0000000000000D+00  0.0000000000000D+00
   236  2.3500000000000D+00  0.0000000000000D+00  0.0000000000000D+00
   237  2.3600000000000D+00  0.0000000000000D+00  0.0000000000000D+00
   238  2.3700000000000D+00  0.0000000000000D+00  0.0000000000000D+00
   239  2.3800000000000D+00  0.0000000000000D+00  0.0000000000000D+00
   240  2.3900000000000D+00  0.0000000000000D+00  0.0000000000000D+00
   241  2.4000000000000D+00  0.0000000000000D+00  0.0000000000000D+00
   242  2.4100000000000D+00  0.0000000000000D+00  0.0000000000000D+00
   243  2.4200000000000D+00  0.0000000000000D+00  0.0000000000000D+00
   244  2.4300000000000D+00  0.0000000000000D+00  0.0000000000000D+00
   245  2.4400000000000D+00  0.0000000000000D+00  0.0000000000000D+00
   246  2.4500000000000D+00  0.0000000000000D+00  0.0000000000000D+00
   247  2.4600000000000D+00  0.0000000000000D+00  0.0000000000000D+00
   248  2.4700000000000D+00  0.0000000000000D+00  0.0000000000000D+00
   249  2.4800000000000D+00  0.0000000000000D+00  0.0000000000000D+00
   250  2.4900000000000D+00  0.0000000000000D+00  0.0000000000000D+00
   251  2.5000000000000D+00  0.0000000000000D+00  0.0000000000000D+00
   252  2.5100000000000D+00  0.0000000000000D+00  0.0000000000000D+00
   253  2.5200000000000D+00  0.0000000000000D+00  0.0000000000000D+00
   254  2.5300000000000D+00  0.0000000000000D+00  0.0000000000000D+00
   255  2.5400000000000D+00  0.0000000000000D+00  0.0000000000000D+00
   256  2.5500000000000D+00  0.0000000000000D+00  0.0000000000000D+00
   257  2.5600000000000D+00  0.0000000000000D+00  0.0000000000000D+00
   258  2.5700000000000D+00  0.0000000000000D+00  0.0000000000000D+00
   259  2.5800000000000D+00  0.0000000000000D+00  0.0000000000000D+00
   260  2.5900000000000D+00  0.0000000000000D+00  0.0000000000000D+00
   261  2.6000000000000D+00  0.0000000000000D+00  0.0000000000000D+00
   262  2.6100000000000D+00  0.0000000000000D+00  0.0000000000000D+00
   263  2.6200000000000D+00  0.0000000000000D+00  0.0000000000000D+00
   264  2.6300000000000D+00  0.0000000000000D+00  0.0000000000000D+00
   265  2.6400000000000D+00  0.0000000000000D+00  0.0000000000000D+00
   266  2.6500000000000D+00  0.0000000000000D+00  0.0000000000000D+00
   267  2.6600000000000D+00  0.0000000000000D+00  0.0000000000000D+00
   268  2.6700000000000D+00  0.0000000000000D+00  0.0000000000000D+00
   269  2.6800000000000D+00  0.0000000000000D+00  0.0000000000000D+00
   270  2.6900000000000D+00  0.0000000000000D+00  0.0000000000000D+00
   271  2.7000000000000D+00  0.0000000000000D+00  0.0000000000000D+00
   272  2.7100000000000D+00  0.0000000000000D+00  0.0000000000000D+00
   273  2.7200000000000D+00  0.0000000000000D+00  0.0000000000000D+00
   274  2.7300000000000D+00  0.0000000000000D+00  0.0000000000000D+00
   275  2.7400000000000D+00  0.0000000000000D+00  0.0000000000000D+00
   276  2.7500000000000D+00  0.0000000000000D+00  0.0000000000000D+00
   277  2.7600000000000D+00  0.0000000000000D+00  0.0000000000000D+00
   278  2.7700000000000D+00  0.0000000000000D+00  0.0000000000000D+00
   279  2.7800000000000D+00  0.0000000000000D+00  0.0000000000000D+00
   280  2.7900000000000D+00  0.0000000000000D+00  0.0000000000000D+00
   281  2.8000000000000D+00  0.0000000000000D+00  0.0000000000000D+00
   282  2.8100000000000D+00  0.0000000000000D+00  0.0000000000000D+00
   283  2.8200000000000D+00  0.0000000000000D+00  0.0000000000000D+00
   284  2.8300000000000D+00  0.0000000000000D+00  0.0000000000000D+00
   285  2.8400000000000D+00  0.0000000000000D+00  0.0000000000000D+00
   286  2.8500000000000D+00  0.0000000000000D+00  0.0000000000000D+00
   287  2.8600000000000D+00  0.0000000000000D+00  0.0000000000000D+00
   288  2.8700000000000D+00  0.0000000000000D+00  0.0000000000000D+00
   289  2.8800000000000D+00  0.0000000000000D+00  0.0000000000000D+00
   290  2.8900000000000D+00  0.0000000000000D+00  0.0000000000000D+00
   291  2.9000000000000D+00  0.0000000000000D+00  0.0000000000000D+00
   292  2.9100000000000D+00  0.0000000000000D+00  0.0000000000000D+00
   293  2.9200000000000D+00  0.0000000000000D+00  0.0000000000000D+00
   294  2.9300000000000D+00  0.0000000000000D+00  0.0000000000000D+00
   295  2.9400000000000D+00  0.0000000000000D+00  0.0000000000000D+00
   296  2.9500000000000D+00  0.0000000000000D+00  0.0000000000000D+00
   297  2.9600000000000D+00  0.0000000000000D+00  0.0000000000000D+00
   298  2.9700000000000D+00  0.0000000000000D+00  0.0000000000000D+00
   299  2.9800000000000D+00  0.0000000000000D+00  0.0000000000000D+00
   300  2.9900000000000D+00  0.0000000000000D+00  0.0000000000000D+00
   301  3.0000000000000D+00  0.0000000000000D+00  0.0000000000000D+00
   302  3.0100000000000D+00  0.0000000000000D+00  0.0000000000000D+00
   303  3.0200000000000D+00  0.0000000000000D+00  0.0000000000000D+00
   304  3.0300000000000D+00  0.0000000000000D+00  0.0000000000000D+00
   305  3.0400000000000D+00  0.0000000000000D+00  0.0000000000000D+00
   306  3.0500000000000D+00  0.0000000000000D+00  0.0000000000000D+00
   307  3.0600000000000D+00  0.0000000000000D+00  0.0000000000000D+00
   308  3.0700000000000D+00  0.0000000000000D+00  0.0000000000000D+00
   309  3.0800000000000D+00  0.0000000000000D+00  0.0000000000000D+00
   310  3.0900000000000D+00  0.0000000000000D+00  0.0000000000000D+00
   311  3.1000000000000D+00  0.0000000000000D+00  0.0000000000000D+00
   312  3.1100000000000D+00  0.0000000000000D+00  0.0000000000000D+00
   313  3.1200000000000D+00  0.0000000000000D+00  0.0000000000000D+00
   314  3.1300000000000D+00  0.0000000000000D+00  0.0000000000000D+00
   315  3.1400000000000D+00  0.0000000000000D+00  0.0000000000000D+00
   316  3.1500000000000D+00  0.0000000000000D+00  0.0000000000000D+00
   317  3.1600000000000D+00  0.0000000000000D+00  0.0000000000000D+00
   318  3.1700000000000D+00  0.0000000000000D+00  0.0000000000000D+00
   319  3.1800000000000D+00  0.0000000000000D+00  0.0000000000000D+00
   320  3.1900000000000D+00  0.0000000000000D+00  0.0000000000000D+00
   321  3.2000000000000D+00  0.0000000000000D+00  0.0000000000000D+00
   322  3.2100000000000D+00  0.0000000000000D+00  0.0000000000000D+00
   323  3.2200000000000D+00  0.0000000000000D+00  0.0000000000000D+00
   324  3.2300000000000D+00  0.0000000000000D+00  0.0000000000000D+00
   325  3.2400000000000D+00  0.0000000000000D+00  0.0000000000000D+00
   326  3.2500000000000D+00  0.0000000000000D+00  0.0000000000000D+00
   327  3.2600000000000D+00  0.0000000000000D+00  0.0000000000000D+00
   328  3.2700000000000D+00  0.0000000000000D+00  0.0000000000000D+00
   329  3.2800000000000D+00  0.0000000000000D+00  0.0000000000000D+00
   330  3.2900000000000D+00  0.0000000000000D+00  0.0000000000000D+00
   331  3.3000000000000D+00  0.0000000000000D+00  0.0000000000000D+00
   332  3.3100000000000D+00  0.0000000000000D+00  0.0000000000000D+00
   333  3.3200000000000D+00  0.0000000000000D+00  0.0000000000000D+00
   334  3.3300000000000D+00  0.0000000000000D+00  0.0000000000000D+00
   335  3.3400000000000D+00  0.0000000000000D+00  0.0000000000000D+00
   336  3.3500000000000D+00  0.0000000000000D+00  0.0000000000000D+00
   337  3.3600000000000D+00  0.0000000000000D+00  0.0000000000000D+00
   338  3.3700000000000D+00  0.0000000000000D+00  0.0000000000000D+00
   339  3.3800000000000D+00  0.0000000000000D+00  0.0000000000000D+00
   340  3.3900000000000D+00  0.0000000000000D+00  0.0000000000000D+00
   341  3.4000000000000D+00  0.0000000000000D+00  0.0000000000000D+00
   342  3.4100000000000D+00  0.0000000000000D+00  0.0000000000000D+00
   343  3.4200000000000D+00  0.0000000000000D+00  0.0000000000000D+00
   344  3.4300000000000D+00  0.0000000000000D+00  0.0000000000000D+00
   345  3.4400000000000D+00  0.0000000000000D+00  0.0000000000000D+00
   346  3.4500000000000D+00  0.0000000000000D+00  0.0000000000000D+00
   347  3.4600000000000D+00  0.0000000000000D+00  0.0000000000000D+00
   348  3.4700000000000D+00  0.0000000000000D+00  0.0000000000000D+00
   349  3.4800000000000D+00  0.0000000000000D+00  0.0000000000000D+00
   350  3.4900000000000D+00  0.0000000000000D+00  0.0000000000000D+00
   351  3.5000000000000D+00  0.0000000000000D+00  0.0000000000000D+00
   352  3.5100000000000D+00  0.0000000000000D+00  0.0000000000000D+00
   353  3.5200000000000D+00  0.0000000000000D+00  0.0000000000000D+00
   354  3.5300000000000D+00  0.0000000000000D+00  0.0000000000000D+00
   355  3.5400000000000D+00  0.0000000000000D+00  0.0000000000000D+00
   356  3.5500000000000D+00  0.0000000000000D+00  0.0000000000000D+00
   357  3.5600000000000D+00  0.0000000000000D+00  0.0000000000000D+00
   358  3.5700000000000D+00  0.0000000000000D+00  0.0000000000000D+00
   359  3.5800000000000D+00  0.0000000000000D+00  0.0000000000000D+00
   360  3.5900000000000D+00  0.0000000000000D+00  0.0000000000000D+00
   361  3.6000000000000D+00  0.0000000000000D+00  0.0000000000000D+00
   362  3.6100000000000D+00  0.0000000000000D+00  0.0000000000000D+00
   363  3.6200000000000D+00  0.0000000000000D+00  0.0000000000000D+00
   364  3.6300000000000D+00  0.0000000000000D+00  0.0000000000000D+00
   365  3.6400000000000D+00  0.0000000000000D+00  0.0000000000000D+00
   366  3.6500000000000D+00  0.0000000000000D+00  0.0000000000000D+00
   367  3.6600000000000D+00  0.0000000000000D+00  0.0000000000000D+00
   368  3.6700000000000D+00  0.0000000000000D+00  0.0000000000000D+00
   369  3.6800000000000D+00  0.0000000000000D+00  0.0000000000000D+00
   370  3.6900000000000D+00  0.0000000000000D+00  0.0000000000000D+00
   371  3.7000000000000D+00  0.0000000000000D+00  0.0000000000000D+00
   372  3.7100000000000D+00  0.0000000000000D+00  0.0000000000000D+00
   373  3.7200000000000D+00  0.0000000000000D+00  0.0000000000000D+00
   374  3.7300000000000D+00  0.0000000000000D+00  0.0000000000000D+00
   375  3.7400000000000D+00  0.0000000000000D+00  0.0000000000000D+00
   376  3.7500000000000D+00  0.0000000000000D+00  0.0000000000000D+00
   377  3.7600000000000D+00  0.0000000000000D+00  0.0000000000000D+00
   378  3.7700000000000D+00  0.0000000000000D+00  0.0000000000000D+00
   379  3.7800000000000D+00  0.0000000000000D+00  0.0000000000000D+00
   380  3.7900000000000D+00  0.0000000000000D+00  0.0000000000000D+00
   381  3.8000000000000D+00  0.0000000000000D+00  0.0000000000000D+00
   382  3.8100000000000D+00  0.0000000000000D+00  0.0000000000000D+00
   383  3.8200000000000D+00  0.0000000000000D+00  0.0000000000000D+00
   384  3.8300000000000D+00  0.0000000000000D+00  0.0000000000000D+00
   385  3.8400000000000D+00  0.0000000000000D+00  0.0000000000000D+00
   386  3.8500000000000D+00  0.0000000000000D+00  0.0000000000000D+00
   387  3.8600000000000D+00  0.0000000000000D+00  0.0000000000000D+00
   388  3.8700000000000D+00  0.0000000000000D+00  0.0000000000000D+00
   389  3.8800000000000D+00  0.0000000000000D+00  0.0000000000000D+00
   390  3.8900000000000D+00  0.0000000000000D+00  0.0000000000000D+00
   391  3.9000000000000D+00  0.0000000000000D+00  0.0000000000000D+00
   392  3.9100000000000D+00  0.0000000000000D+00  0.0000000000000D+00
   393  3.9200000000000D+00  0.0000000000000D+00  0.0000000000000D+00
   394  3.9300000000000D+00  0.0000000000000D+00  0.0000000000000D+00
   395  3.9400000000000D+00  0.0000000000000D+00  0.0000000000000D+00
   396  3.9500000000000D+00  0.0000000000000D+00  0.0000000000000D+00
   397  3.9600000000000D+00  0.0000000000000D+00  0.0000000000000D+00
   398  3.9700000000000D+00  0.0000000000000D+00  0.0000000000000D+00
   399  3.9800000000000D+00  0.0000000000000D+00  0.0000000000000D+00
   400  3.9900000000000D+00  0.0000000000000D+00  0.0000000000000D+00
   401  4.0000000000000D+00  0.0000000000000D+00  0.0000000000000D+00
   402  4.0100000000000D+00  0.0000000000000D+00  0.0000000000000D+00
   403  4.0200000000000D+00  0.0000000000000D+00  0.0000000000000D+00
   404  4.0300000000000D+00  0.0000000000000D+00  0.0000000000000D+00
   405  4.0400000000000D+00  0.0000000000000D+00  0.0000000000000D+00
   406  4.0500000000000D+00  0.0000000000000D+00  0.0000000000000D+00
   407  4.0600000000000D+00  0.0000000000000D+00  0.0000000000000D+00
   408  4.0700000000000D+00  0.0000000000000D+00  0.0000000000000D+00
   409  4.0800000000000D+00  0.0000000000000D+00  0.0000000000000D+00
   410  4.0900000000000D+00  0.0000000000000D+00  0.0000000000000D+00
   411  4.1000000000000D+00  0.0000000000000D+00  0.0000000000000D+00
   412  4.1100000000000D+00  0.0000000000000D+00  0.0000000000000D+00
   413  4.1200000000000D+00  0.0000000000000D+00  0.0000000000000D+00
   414  4.1300000000000D+00  0.0000000000000D+00  0.0000000000000D+00
   415  4.1400000000000D+00  0.0000000000000D+00  0.0000000000000D+00
   416  4.1500000000000D+00  0.0000000000000D+00  0.0000000000000D+00
   417  4.1600000000000D+00  0.0000000000000D+00  0.0000000000000D+00
   418  4.1700000000000D+00  0.0000000000000D+00  0.0000000000000D+00
   419  4.1800000000000D+00  0.0000000000000D+00  0.0000000000000D+00
   420  4.1900000000000D+00  0.0000000000000D+00  0.0000000000000D+00
   421  4.2000000000000D+00  0.0000000000000D+00  0.0000000000000D+00
   422  4.2100000000000D+00  0.0000000000000D+00  0.0000000000000D+00