In    ONCVPSP-3.3.0  r_core=   2.10853   2.37566   3.12562
     49.0000      3.0000      220408    zatom,zion,pspd
     8       2   2     4   600     0    pspcod,pspxc,lmax,lloc,mmax,r2well
  5.99000000  0.00000000  0.00000000    rchrg fchrg qchrg
     2     2     2     0     0    nproj
     1     1           extension_switch
   0                         1.3264540488962D+01  1.9180395538569D+00
     1  0.0000000000000D+00 -2.0205548345587D-10  2.0006413192775D-10
     2  1.0000000000000D-02  5.9375211368727D-02 -3.9878547670641D-02
     3  2.0000000000000D-02  1.1846822902617D-01 -7.9486008593505D-02
     4  3.0000000000000D-02  1.7699849107521D-01 -1.1855287336530D-01
     5  4.0000000000000D-02  2.3468868993961D-01 -1.5681277818888D-01
     6  5.0000000000000D-02  2.9126637630730D-01 -1.9400405502003D-01
     7  6.0000000000000D-02  3.4646553535583D-01 -2.2987125466816D-01
     8  7.0000000000000D-02  4.0002812625853D-01 -2.6416663407110D-01
     9  8.0000000000000D-02  4.5170557617173D-01 -2.9665159916373D-01
    10  9.0000000000000D-02  5.0126022015410D-01 -3.2709809500896D-01
    11  1.0000000000000D-01  5.4846667876720D-01 -3.5528993515384D-01
    12  1.1000000000000D-01  5.9311316544994D-01 -3.8102406251443D-01
    13  1.2000000000000D-01  6.3500271614766D-01 -4.0411173447631D-01
    14  1.3000000000000D-01  6.7395433410600D-01 -4.2437962532285D-01
    15  1.4000000000000D-01  7.0980404320968D-01 -4.4167083956786D-01
    16  1.5000000000000D-01  7.4240584375305D-01 -4.5584583027050D-01
    17  1.6000000000000D-01  7.7163256507122D-01 -4.6678321694533D-01
    18  1.7000000000000D-01  7.9737661003418D-01 -4.7438049824775D-01
    19  1.8000000000000D-01  8.1955058700905D-01 -4.7855465520957D-01
    20  1.9000000000000D-01  8.3808782552404D-01 -4.7924264141988D-01
    21  2.0000000000000D-01  8.5294277251867D-01 -4.7640175718867D-01
    22  2.1000000000000D-01  8.6409126673476D-01 -4.7000990539075D-01
    23  2.2000000000000D-01  8.7153068948813D-01 -4.6006572736294D-01
    24  2.3000000000000D-01  8.7527999075830D-01 -4.4658861791413D-01
    25  2.4000000000000D-01  8.7537959023875D-01 -4.2961861920119D-01
    26  2.5000000000000D-01  8.7189115369973D-01 -4.0921619392148D-01
    27  2.6000000000000D-01  8.6489724572586D-01 -3.8546187896961D-01
    28  2.7000000000000D-01  8.5450086059670D-01 -3.5845582139898D-01
    29  2.8000000000000D-01  8.4082483377783D-01 -3.2831719921354D-01
    30  2.9000000000000D-01  8.2401113717730D-01 -2.9518353018817D-01
    31  3.0000000000000D-01  8.0422006199486D-01 -2.5920987257274D-01
    32  3.1000000000000D-01  7.8162929364475D-01 -2.2056792217308D-01
    33  3.2000000000000D-01  7.5643288386347D-01 -1.7944501091546D-01
    34  3.3000000000000D-01  7.2884012571808D-01 -1.3604301258911D-01
    35  3.4000000000000D-01  6.9907433780506D-01 -9.0577162017774D-02
    36  3.5000000000000D-01  6.6737156447040D-01 -4.3274794434403D-02
    37  3.6000000000000D-01  6.3397919938629D-01  5.6259876805726D-03
    38  3.7000000000000D-01  5.9915454028396D-01  5.5877712591190D-02
    39  3.8000000000000D-01  5.6316328306490D-01  1.0722499401827D-01
    40  3.9000000000000D-01  5.2627796388896D-01  1.5940603410455D-01
    41  4.0000000000000D-01  4.8877635816753D-01  2.1215416585492D-01
    42  4.1000000000000D-01  4.5093984566897D-01  2.6519942601371D-01
    43  4.2000000000000D-01  4.1305175117122D-01  3.1827014913265D-01
    44  4.3000000000000D-01  3.7539567027039D-01  3.7109457342789D-01
    45  4.4000000000000D-01  3.3825379007360D-01  4.2340244892396D-01
    46  4.5000000000000D-01  3.0190521456725D-01  4.7492663833750D-01
    47  4.6000000000000D-01  2.6662430445895D-01  5.2540470116504D-01
    48  4.7000000000000D-01  2.3267904124069D-01  5.7458045150679D-01
    49  4.8000000000000D-01  2.0032942511298D-01  6.2220548028299D-01
    50  4.9000000000000D-01  1.6982591624531D-01  6.6804063267999D-01
    51  5.0000000000000D-01  1.4140792862702D-01  7.1185743189967D-01
    52  5.1000000000000D-01  1.1530238548576D-01  7.5343944057650D-01
    53  5.2000000000000D-01  9.1722344920221D-02  7.9258355157103D-01
    54  5.3000000000000D-01  7.0865704009455D-02  8.2910120024423D-01
    55  5.4000000000000D-01  5.2913989227176D-02  8.6281949076217D-01
    56  5.5000000000000D-01  3.8031240505493D-02  8.9358222947389D-01
    57  5.6000000000000D-01  2.6362995763722D-02  9.2125085894183D-01
    58  5.7000000000000D-01  1.8035382145168D-02  9.4570528678353D-01
    59  5.8000000000000D-01  1.3154319591643D-02  9.6684460410106D-01
    60  5.9000000000000D-01  1.1804841736837D-02  9.8458768892635D-01
    61  6.0000000000000D-01  1.4050538415983D-02  9.9887369079532D-01
    62  6.1000000000000D-01  1.9933123378447D-02  1.0096623932742D+00
    63  6.2000000000000D-01  2.9472130052989D-02  1.0169344519948D+00
    64  6.3000000000000D-01  4.2664737456254D-02  1.0206915065119D+00
    65  6.4000000000000D-01  5.9485727564656D-02  1.0209561650565D+00
    66  6.5000000000000D-01  7.9887574680370D-02  1.0177718620435D+00
    67  6.6000000000000D-01  1.0380066653182D-01  1.0112025889673D+00
    68  6.7000000000000D-01  1.3113365605574D-01  1.0013325001036D+00
    69  6.8000000000000D-01  1.6177394201336D-01  9.8826539521155D-01
    70  6.9000000000000D-01  1.9558827581093D-01  9.7212408219639D-01
    71  7.0000000000000D-01  2.3242349112425D-01  9.5304962344630D-01
    72  7.1000000000000D-01  2.7210735217220D-01  9.3120047028658D-01
    73  7.2000000000000D-01  3.1444951575242D-01  9.0675149070549D-01
    74  7.3000000000000D-01  3.5924260144924D-01  8.7989289618254D-01
    75  7.4000000000000D-01  4.0626336375037D-01  8.5082907409678D-01
    76  7.5000000000000D-01  4.5527395917297D-01  8.1977733279879D-01
    77  7.6000000000000D-01  5.0602330090350D-01  7.8696656699619D-01
    78  7.7000000000000D-01  5.5824849290287D-01  7.5263585162225D-01
    79  7.8000000000000D-01  6.1167633492569D-01  7.1703297282622D-01
    80  7.9000000000000D-01  6.6602488944991D-01  6.8041290514138D-01
    81  8.0000000000000D-01  7.2100510111529D-01  6.4303624424767D-01
    82  8.1000000000000D-01  7.7632245892945D-01  6.0516760504813D-01
    83  8.2000000000000D-01  8.3167869122052D-01  5.6707399501983D-01
    84  8.3000000000000D-01  8.8677348309721D-01  5.2902317297845D-01
    85  8.4000000000000D-01  9.4130620602404D-01  4.9128200350953D-01
    86  8.5000000000000D-01  9.9497764903010D-01  4.5411481736835D-01
    87  8.6000000000000D-01  1.0474917410480D+00  4.1778178813228D-01
    88  8.7000000000000D-01  1.0985572539231D+00  3.8253733530529D-01
    89  8.8000000000000D-01  1.1478894757447D+00  3.4862856392399D-01
    90  8.9000000000000D-01  1.1952118443261D+00  3.1629375049794D-01
    91  9.0000000000000D-01  1.2402575309060D+00  2.8576088483645D-01
    92  9.1000000000000D-01  1.2827709644448D+00  2.5724627696993D-01
    93  9.2000000000000D-01  1.3225092872637D+00  2.3095323796884D-01
    94  9.3000000000000D-01  1.3592437331995D+00  2.0707084299958D-01
    95  9.4000000000000D-01  1.3927609199338D+00  1.8577278443674D-01
    96  9.5000000000000D-01  1.4228640477001D+00  1.6721632227883D-01
    97  9.6000000000000D-01  1.4493739971594D+00  1.5154133849285D-01
    98  9.7000000000000D-01  1.4721303198761D+00  1.3886950124794D-01
    99  9.8000000000000D-01  1.4909921155160D+00  1.2930354428189D-01
   100  9.9000000000000D-01  1.5058387905918D+00  1.2292666591808D-01
   101  1.0000000000000D+00  1.5165706943563D+00  1.1980205145820D-01
   102  1.0100000000000D+00  1.5231096282202D+00  1.1997252187919D-01
   103  1.0200000000000D+00  1.5253992258811D+00  1.2346031094306D-01
   104  1.0300000000000D+00  1.5234052021775D+00  1.3026697198884D-01
   105  1.0400000000000D+00  1.5171154695309D+00  1.4037341482103D-01
   106  1.0500000000000D+00  1.5065401216841D+00  1.5374007225901D-01
   107  1.0600000000000D+00  1.4917112852686D+00  1.7030719508888D-01
   108  1.0700000000000D+00  1.4726828406375D+00  1.8999527325865D-01
   109  1.0800000000000D+00  1.4495300141853D+00  2.1270558038041D-01
   110  1.0900000000000D+00  1.4223488452352D+00  2.3832083775548D-01
   111  1.1000000000000D+00  1.3912555313519D+00  2.6670599337617D-01
   112  1.1100000000000D+00  1.3563856566952D+00  2.9770911061788D-01
   113  1.1200000000000D+00  1.3178933088403D+00  3.3116236054960D-01
   114  1.1300000000000D+00  1.2759500901311D+00  3.6688311117390D-01
   115  1.1400000000000D+00  1.2307440303546D+00  4.0467510622085D-01
   116  1.1500000000000D+00  1.1824784080293D+00  4.4432972563664D-01
   117  1.1600000000000D+00  1.1313704883378D+00  4.8562731922136D-01
   118  1.1700000000000D+00  1.0776501861290D+00  5.2833860450795D-01
   119  1.1800000000000D+00  1.0215586628918D+00  5.7222611953985D-01
   120  1.1900000000000D+00  9.6334686698731D-01  6.1704572086268D-01
   121  1.2000000000000D+00  9.0327402682402D-01  6.6254811670589D-01
   122  1.2100000000000D+00  8.4160610685316D-01  7.0848042518689D-01
   123  1.2200000000000D+00  7.7861423644750D-01  7.5458774721834D-01
   124  1.2300000000000D+00  7.1457312194627D-01  8.0061474366039D-01
   125  1.2400000000000D+00  6.4975945210283D-01  8.4630720635694D-01
   126  1.2500000000000D+00  5.8445030720040D-01  8.9141361270711D-01
   127  1.2600000000000D+00  5.1892158207341D-01  9.3568665352316D-01
   128  1.2700000000000D+00  4.5344643298150D-01  9.7888472429208D-01
   129  1.2800000000000D+00  3.8829375817192D-01  1.0207733700992D+00
   130  1.2900000000000D+00  3.2372672175366D-01  1.0611266747541D+00
   131  1.3000000000000D+00  2.6000132983737D-01  1.0997285854247D+00
   132  1.3100000000000D+00  1.9736506784754D-01  1.1363741641354D+00
   133  1.3200000000000D+00  1.3605560738590D-01  1.1708707581030D+00
   134  1.3300000000000D+00  7.6299589987044D-02  1.2030390820121D+00
   135  1.3400000000000D+00  1.8311495431773D-02  1.2327142049834D+00
   136  1.3500000000000D+00 -3.7707398991822D-02  1.2597464363900D+00
   137  1.3600000000000D+00 -9.1569962949152D-02  1.2840021057948D+00
   138  1.3700000000000D+00 -1.4310405493471D-01  1.3053642312540D+00
   139  1.3800000000000D+00 -1.9215325827338D-01  1.3237330734493D+00
   140  1.3900000000000D+00 -2.3857750712283D-01  1.3390265722019D+00
   141  1.4000000000000D+00 -2.8225359908475D-01  1.3511806627255D+00
   142  1.4100000000000D+00 -3.2307559369373D-01  1.3601494717373D+00
   143  1.4200000000000D+00 -3.6095509384881D-01  1.3659053912580D+00
   144  1.4300000000000D+00 -3.9582141104217D-01  1.3684390318755D+00
   145  1.4400000000000D+00 -4.2762161441861D-01  1.3677590563680D+00
   146  1.4500000000000D+00 -4.5632046394993D-01  1.3638918948792D+00
   147  1.4600000000000D+00 -4.8190023163036D-01  1.3568813465060D+00
   148  1.4700000000000D+00 -5.0436041087950D-01  1.3467880683939D+00
   149  1.4800000000000D+00 -5.2371732003081D-01  1.3336889591985D+00
   150  1.4900000000000D+00 -5.4000360245333D-01  1.3176764403885D+00
   151  1.5000000000000D+00 -5.5326762872004D-01  1.2988576417821D+00
   152  1.5100000000000D+00 -5.6357280684121D-01  1.2773534982360D+00
   153  1.5200000000000D+00 -5.7099680516405D-01  1.2532977630946D+00
   154  1.5300000000000D+00 -5.7563069677156D-01  1.2268359480347D+00
   155  1.5400000000000D+00 -5.7757802990306D-01  1.1981241948733D+00
   156  1.5500000000000D+00 -5.7695383443369D-01  1.1673280900771D+00
   157  1.5600000000000D+00 -5.7388357027643D-01  1.1346214288306D+00
   158  1.5700000000000D+00 -5.6850202739956D-01  1.1001849390365D+00
   159  1.5800000000000D+00 -5.6095218492277D-01  1.0642049735469D+00
   160  1.5900000000000D+00 -5.5138403860215D-01  1.0268721806438D+00
   161  1.6000000000000D+00 -5.3995340493251D-01  9.8838016160738D-01
   162  1.6100000000000D+00 -5.2682071121852D-01  9.4892412548780D-01
   163  1.6200000000000D+00 -5.1214977961410D-01  9.0869954941331D-01
   164  1.6300000000000D+00 -4.9610661498810D-01  8.6790085512860D-01
   165  1.6400000000000D+00 -4.7885820341648D-01  8.2672010858589D-01
   166  1.6500000000000D+00 -4.6057133163538D-01  7.8534575242225D-01
   167  1.6600000000000D+00 -4.4141143511505D-01  7.4396138828097D-01
   168  1.6700000000000D+00 -4.2154147492165D-01  7.0274457329367D-01
   169  1.6800000000000D+00 -4.0112088181502D-01  6.6186577459582D-01
   170  1.6900000000000D+00 -3.8030451359606D-01  6.2148724936802D-01
   171  1.7000000000000D+00 -3.5924165464279D-01  5.8176190333469D-01
   172  1.7100000000000D+00 -3.3807520678417D-01  5.4283280421140D-01
   173  1.7200000000000D+00 -3.1694092213642D-01  5.0483269107117D-01
   174  1.7300000000000D+00 -2.9596676188977D-01  4.6788360031114D-01
   175  1.7400000000000D+00 -2.7527237029497D-01  4.3209676340019D-01
   176  1.7500000000000D+00 -2.5496852678356D-01  3.9757209067846D-01
   177  1.7600000000000D+00 -2.3515667884925D-01  3.6439770917662D-01
   178  1.7700000000000D+00 -2.1592859269743D-01  3.3264975203966D-01
   179  1.7800000000000D+00 -1.9736607781416D-01  3.0239218852297D-01
   180  1.7900000000000D+00 -1.7954080481181D-01  2.7367675720805D-01
   181  1.8000000000000D+00 -1.6251420969984D-01  2.4654299921550D-01
   182  1.8100000000000D+00 -1.4633748679119D-01  2.2101838576814D-01
   183  1.8200000000000D+00 -1.3105166684058D-01  1.9711853956354D-01
   184  1.8300000000000D+00 -1.1668777781328D-01  1.7484754586169D-01
   185  1.8400000000000D+00 -1.0326708820000D-01  1.5419835265185D-01
   186  1.8500000000000D+00 -9.0801423394599D-02  1.3515324934208D-01
   187  1.8600000000000D+00 -7.9293559762408D-02  1.1768442823126D-01
   188  1.8700000000000D+00 -6.8737680350371D-02  1.0175461141990D-01
   189  1.8800000000000D+00 -5.9119900014672D-02  8.7317750589334D-02
   190  1.8900000000000D+00 -5.0418841380892D-02  7.4319779810052D-02
   191  1.9000000000000D+00 -4.2606266768854D-02  6.2699425921168D-02
   192  1.9100000000000D+00 -3.5647751588437D-02  5.2389061013287D-02
   193  1.9200000000000D+00 -2.9503397100175D-02  4.3315594020861D-02
   194  1.9300000000000D+00 -2.4128574274417D-02  3.5401392363629D-02
   195  1.9400000000000D+00 -1.9474690710908D-02  2.8565224716536D-02
   196  1.9500000000000D+00 -1.5489975182472D-02  2.2723218456086D-02
   197  1.9600000000000D+00 -1.2120271409837D-02  1.7789823016686D-02
   198  1.9700000000000D+00 -9.3098328552373D-03  1.3678769327192D-02
   199  1.9800000000000D+00 -7.0021144678598D-03  1.0304021463121D-02
   200  1.9900000000000D+00 -5.1405494825957D-03  7.5807068639178D-03
   201  2.0000000000000D+00 -3.6693085016865D-03  5.4260222857684D-03
   202  2.0100000000000D+00 -2.5340329983647D-03  3.7601067876747D-03
   203  2.0200000000000D+00 -1.6825316471210D-03  2.5068688154070D-03
   204  2.0300000000000D+00 -1.0654463626340D-03  1.5947752024480D-03
   205  2.0400000000000D+00 -6.3689049010232D-04  9.5759976994231D-04
   206  2.0500000000000D+00 -3.5492072076588D-04  5.3500525134796D-04
   207  2.0600000000000D+00 -1.8209708254163D-04  2.7320178673660D-04
   208  2.0700000000000D+00 -8.6035921509812D-05  1.2559409249926D-04
   209  2.0800000000000D+00 -3.9881799933573D-05  5.3111989269657D-05
   210  2.0900000000000D+00 -2.2514394372910D-05  2.4766595935033D-05
   211  2.1000000000000D+00 -1.7961707341015D-05  1.7298468034384D-05
   212  2.1100000000000D+00 -1.5490893587910D-05  1.5062688536400D-05
   213  2.1200000000000D+00 -9.5171073684892D-06  9.5826511860500D-06
   214  2.1300000000000D+00 -2.3747364061029D-06  2.4715671828414D-06
   215  2.1400000000000D+00  1.4958726113827D-06 -1.4867127222207D-06
   216  2.1500000000000D+00  1.5114119682188D-06 -1.5189842396226D-06
   217  2.1600000000000D+00 -3.0371161479181D-08  2.7320285712971D-08
   218  2.1700000000000D+00 -3.3901527044590D-07  3.0330611528405D-07
   219  2.1800000000000D+00 -1.8789617157164D-07  1.6736002060628D-07
   220  2.1900000000000D+00  2.6986534739144D-08 -2.6140578998082D-08
   221  2.2000000000000D+00  4.4177681645027D-08 -4.2792829392760D-08
   222  2.2100000000000D+00  8.0782494316785D-09 -7.8250179015649D-09
   223  2.2200000000000D+00  0.0000000000000D+00  0.0000000000000D+00
   224  2.2300000000000D+00  0.0000000000000D+00  0.0000000000000D+00
   225  2.2400000000000D+00  0.0000000000000D+00  0.0000000000000D+00
   226  2.2500000000000D+00  0.0000000000000D+00  0.0000000000000D+00
   227  2.2600000000000D+00  0.0000000000000D+00  0.0000000000000D+00
   228  2.2700000000000D+00  0.0000000000000D+00  0.0000000000000D+00
   229  2.2800000000000D+00  0.0000000000000D+00  0.0000000000000D+00
   230  2.2900000000000D+00  0.0000000000000D+00  0.0000000000000D+00
   231  2.3000000000000D+00  0.0000000000000D+00  0.0000000000000D+00
   232  2.3100000000000D+00  0.0000000000000D+00  0.0000000000000D+00
   233  2.3200000000000D+00  0.0000000000000D+00  0.0000000000000D+00
   234  2.3300000000000D+00  0.0000000000000D+00  0.0000000000000D+00
   235  2.3400000000000D+00  0.0000000000000D+00  0.0000000000000D+00
   236  2.3500000000000D+00  0.0000000000000D+00  0.0000000000000D+00
   237  2.3600000000000D+00  0.0000000000000D+00  0.0000000000000D+00
   238  2.3700000000000D+00  0.0000000000000D+00  0.0000000000000D+00
   239  2.3800000000000D+00  0.0000000000000D+00  0.0000000000000D+00
   240  2.3900000000000D+00  0.0000000000000D+00  0.0000000000000D+00
   241  2.4000000000000D+00  0.0000000000000D+00  0.0000000000000D+00
   242  2.4100000000000D+00  0.0000000000000D+00  0.0000000000000D+00
   243  2.4200000000000D+00  0.0000000000000D+00  0.0000000000000D+00
   244  2.4300000000000D+00  0.0000000000000D+00  0.0000000000000D+00
   245  2.4400000000000D+00  0.0000000000000D+00  0.0000000000000D+00
   246  2.4500000000000D+00  0.0000000000000D+00  0.0000000000000D+00
   247  2.4600000000000D+00  0.0000000000000D+00  0.0000000000000D+00
   248  2.4700000000000D+00  0.0000000000000D+00  0.0000000000000D+00
   249  2.4800000000000D+00  0.0000000000000D+00  0.0000000000000D+00
   250  2.4900000000000D+00  0.0000000000000D+00  0.0000000000000D+00
   251  2.5000000000000D+00  0.0000000000000D+00  0.0000000000000D+00
   252  2.5100000000000D+00  0.0000000000000D+00  0.0000000000000D+00
   253  2.5200000000000D+00  0.0000000000000D+00  0.0000000000000D+00
   254  2.5300000000000D+00  0.0000000000000D+00  0.0000000000000D+00
   255  2.5400000000000D+00  0.0000000000000D+00  0.0000000000000D+00
   256  2.5500000000000D+00  0.0000000000000D+00  0.0000000000000D+00
   257  2.5600000000000D+00  0.0000000000000D+00  0.0000000000000D+00
   258  2.5700000000000D+00  0.0000000000000D+00  0.0000000000000D+00
   259  2.5800000000000D+00  0.0000000000000D+00  0.0000000000000D+00
   260  2.5900000000000D+00  0.0000000000000D+00  0.0000000000000D+00
   261  2.6000000000000D+00  0.0000000000000D+00  0.0000000000000D+00
   262  2.6100000000000D+00  0.0000000000000D+00  0.0000000000000D+00
   263  2.6200000000000D+00  0.0000000000000D+00  0.0000000000000D+00
   264  2.6300000000000D+00  0.0000000000000D+00  0.0000000000000D+00
   265  2.6400000000000D+00  0.0000000000000D+00  0.0000000000000D+00
   266  2.6500000000000D+00  0.0000000000000D+00  0.0000000000000D+00
   267  2.6600000000000D+00  0.0000000000000D+00  0.0000000000000D+00
   268  2.6700000000000D+00  0.0000000000000D+00  0.0000000000000D+00
   269  2.6800000000000D+00  0.0000000000000D+00  0.0000000000000D+00
   270  2.6900000000000D+00  0.0000000000000D+00  0.0000000000000D+00
   271  2.7000000000000D+00  0.0000000000000D+00  0.0000000000000D+00
   272  2.7100000000000D+00  0.0000000000000D+00  0.0000000000000D+00
   273  2.7200000000000D+00  0.0000000000000D+00  0.0000000000000D+00
   274  2.7300000000000D+00  0.0000000000000D+00  0.0000000000000D+00
   275  2.7400000000000D+00  0.0000000000000D+00  0.0000000000000D+00
   276  2.7500000000000D+00  0.0000000000000D+00  0.0000000000000D+00
   277  2.7600000000000D+00  0.0000000000000D+00  0.0000000000000D+00
   278  2.7700000000000D+00  0.0000000000000D+00  0.0000000000000D+00
   279  2.7800000000000D+00  0.0000000000000D+00  0.0000000000000D+00
   280  2.7900000000000D+00  0.0000000000000D+00  0.0000000000000D+00
   281  2.8000000000000D+00  0.0000000000000D+00  0.0000000000000D+00
   282  2.8100000000000D+00  0.0000000000000D+00  0.0000000000000D+00
   283  2.8200000000000D+00  0.0000000000000D+00  0.0000000000000D+00
   284  2.8300000000000D+00  0.0000000000000D+00  0.0000000000000D+00
   285  2.8400000000000D+00  0.0000000000000D+00  0.0000000000000D+00
   286  2.8500000000000D+00  0.0000000000000D+00  0.0000000000000D+00
   287  2.8600000000000D+00  0.0000000000000D+00  0.0000000000000D+00
   288  2.8700000000000D+00  0.0000000000000D+00  0.0000000000000D+00
   289  2.8800000000000D+00  0.0000000000000D+00  0.0000000000000D+00
   290  2.8900000000000D+00  0.0000000000000D+00  0.0000000000000D+00
   291  2.9000000000000D+00  0.0000000000000D+00  0.0000000000000D+00
   292  2.9100000000000D+00  0.0000000000000D+00  0.0000000000000D+00
   293  2.9200000000000D+00  0.0000000000000D+00  0.0000000000000D+00
   294  2.9300000000000D+00  0.0000000000000D+00  0.0000000000000D+00
   295  2.9400000000000D+00  0.0000000000000D+00  0.0000000000000D+00
   296  2.9500000000000D+00  0.0000000000000D+00  0.0000000000000D+00
   297  2.9600000000000D+00  0.0000000000000D+00  0.0000000000000D+00
   298  2.9700000000000D+00  0.0000000000000D+00  0.0000000000000D+00
   299  2.9800000000000D+00  0.0000000000000D+00  0.0000000000000D+00
   300  2.9900000000000D+00  0.0000000000000D+00  0.0000000000000D+00
   301  3.0000000000000D+00  0.0000000000000D+00  0.0000000000000D+00
   302  3.0100000000000D+00  0.0000000000000D+00  0.0000000000000D+00
   303  3.0200000000000D+00  0.0000000000000D+00  0.0000000000000D+00
   304  3.0300000000000D+00  0.0000000000000D+00  0.0000000000000D+00
   305  3.0400000000000D+00  0.0000000000000D+00  0.0000000000000D+00
   306  3.0500000000000D+00  0.0000000000000D+00  0.0000000000000D+00
   307  3.0600000000000D+00  0.0000000000000D+00  0.0000000000000D+00
   308  3.0700000000000D+00  0.0000000000000D+00  0.0000000000000D+00
   309  3.0800000000000D+00  0.0000000000000D+00  0.0000000000000D+00
   310  3.0900000000000D+00  0.0000000000000D+00  0.0000000000000D+00
   311  3.1000000000000D+00  0.0000000000000D+00  0.0000000000000D+00
   312  3.1100000000000D+00  0.0000000000000D+00  0.0000000000000D+00
   313  3.1200000000000D+00  0.0000000000000D+00  0.0000000000000D+00
   314  3.1300000000000D+00  0.0000000000000D+00  0.0000000000000D+00
   315  3.1400000000000D+00  0.0000000000000D+00  0.0000000000000D+00
   316  3.1500000000000D+00  0.0000000000000D+00  0.0000000000000D+00
   317  3.1600000000000D+00  0.0000000000000D+00  0.0000000000000D+00
   318  3.1700000000000D+00  0.0000000000000D+00  0.0000000000000D+00
   319  3.1800000000000D+00  0.0000000000000D+00  0.0000000000000D+00
   320  3.1900000000000D+00  0.0000000000000D+00  0.0000000000000D+00
   321  3.2000000000000D+00  0.0000000000000D+00  0.0000000000000D+00
   322  3.2100000000000D+00  0.0000000000000D+00  0.0000000000000D+00
   323  3.2200000000000D+00  0.0000000000000D+00  0.0000000000000D+00
   324  3.2300000000000D+00  0.0000000000000D+00  0.0000000000000D+00
   325  3.2400000000000D+00  0.0000000000000D+00  0.0000000000000D+00
   326  3.2500000000000D+00  0.0000000000000D+00  0.0000000000000D+00
   327  3.2600000000000D+00  0.0000000000000D+00  0.0000000000000D+00
   328  3.2700000000000D+00  0.0000000000000D+00  0.0000000000000D+00
   329  3.2800000000000D+00  0.0000000000000D+00  0.0000000000000D+00
   330  3.2900000000000D+00  0.0000000000000D+00  0.0000000000000D+00
   331  3.3000000000000D+00  0.0000000000000D+00  0.0000000000000D+00
   332  3.3100000000000D+00  0.0000000000000D+00  0.0000000000000D+00
   333  3.3200000000000D+00  0.0000000000000D+00  0.0000000000000D+00
   334  3.3300000000000D+00  0.0000000000000D+00  0.0000000000000D+00
   335  3.3400000000000D+00  0.0000000000000D+00  0.0000000000000D+00
   336  3.3500000000000D+00  0.0000000000000D+00  0.0000000000000D+00
   337  3.3600000000000D+00  0.0000000000000D+00  0.0000000000000D+00
   338  3.3700000000000D+00  0.0000000000000D+00  0.0000000000000D+00
   339  3.3800000000000D+00  0.0000000000000D+00  0.0000000000000D+00
   340  3.3900000000000D+00  0.0000000000000D+00  0.0000000000000D+00
   341  3.4000000000000D+00  0.0000000000000D+00  0.0000000000000D+00
   342  3.4100000000000D+00  0.0000000000000D+00  0.0000000000000D+00
   343  3.4200000000000D+00  0.0000000000000D+00  0.0000000000000D+00
   344  3.4300000000000D+00  0.0000000000000D+00  0.0000000000000D+00
   345  3.4400000000000D+00  0.0000000000000D+00  0.0000000000000D+00
   346  3.4500000000000D+00  0.0000000000000D+00  0.0000000000000D+00
   347  3.4600000000000D+00  0.0000000000000D+00  0.0000000000000D+00
   348  3.4700000000000D+00  0.0000000000000D+00  0.0000000000000D+00
   349  3.4800000000000D+00  0.0000000000000D+00  0.0000000000000D+00
   350  3.4900000000000D+00  0.0000000000000D+00  0.0000000000000D+00
   351  3.5000000000000D+00  0.0000000000000D+00  0.0000000000000D+00
   352  3.5100000000000D+00  0.0000000000000D+00  0.0000000000000D+00
   353  3.5200000000000D+00  0.0000000000000D+00  0.0000000000000D+00
   354  3.5300000000000D+00  0.0000000000000D+00  0.0000000000000D+00
   355  3.5400000000000D+00  0.0000000000000D+00  0.0000000000000D+00
   356  3.5500000000000D+00  0.0000000000000D+00  0.0000000000000D+00
   357  3.5600000000000D+00  0.0000000000000D+00  0.0000000000000D+00
   358  3.5700000000000D+00  0.0000000000000D+00  0.0000000000000D+00
   359  3.5800000000000D+00  0.0000000000000D+00  0.0000000000000D+00
   360  3.5900000000000D+00  0.0000000000000D+00  0.0000000000000D+00
   361  3.6000000000000D+00  0.0000000000000D+00  0.0000000000000D+00
   362  3.6100000000000D+00  0.0000000000000D+00  0.0000000000000D+00
   363  3.6200000000000D+00  0.0000000000000D+00  0.0000000000000D+00
   364  3.6300000000000D+00  0.0000000000000D+00  0.0000000000000D+00
   365  3.6400000000000D+00  0.0000000000000D+00  0.0000000000000D+00
   366  3.6500000000000D+00  0.0000000000000D+00  0.0000000000000D+00
   367  3.6600000000000D+00  0.0000000000000D+00  0.0000000000000D+00
   368  3.6700000000000D+00  0.0000000000000D+00  0.0000000000000D+00
   369  3.6800000000000D+00  0.0000000000000D+00  0.0000000000000D+00
   370  3.6900000000000D+00  0.0000000000000D+00  0.0000000000000D+00
   371  3.7000000000000D+00  0.0000000000000D+00  0.0000000000000D+00
   372  3.7100000000000D+00  0.0000000000000D+00  0.0000000000000D+00
   373  3.7200000000000D+00  0.0000000000000D+00  0.0000000000000D+00
   374  3.7300000000000D+00  0.0000000000000D+00  0.0000000000000D+00
   375  3.7400000000000D+00  0.0000000000000D+00  0.0000000000000D+00
   376  3.7500000000000D+00  0.0000000000000D+00  0.0000000000000D+00
   377  3.7600000000000D+00  0.0000000000000D+00  0.0000000000000D+00
   378  3.7700000000000D+00  0.0000000000000D+00  0.0000000000000D+00
   379  3.7800000000000D+00  0.0000000000000D+00  0.0000000000000D+00
   380  3.7900000000000D+00  0.0000000000000D+00  0.0000000000000D+00
   381  3.8000000000000D+00  0.0000000000000D+00  0.0000000000000D+00
   382  3.8100000000000D+00  0.0000000000000D+00  0.0000000000000D+00
   383  3.8200000000000D+00  0.0000000000000D+00  0.0000000000000D+00
   384  3.8300000000000D+00  0.0000000000000D+00  0.0000000000000D+00
   385  3.8400000000000D+00  0.0000000000000D+00  0.0000000000000D+00
   386  3.8500000000000D+00  0.0000000000000D+00  0.0000000000000D+00
   387  3.8600000000000D+00  0.0000000000000D+00  0.0000000000000D+00
   388  3.8700000000000D+00  0.0000000000000D+00  0.0000000000000D+00
   389  3.8800000000000D+00  0.0000000000000D+00  0.0000000000000D+00
   390  3.8900000000000D+00  0.0000000000000D+00  0.0000000000000D+00
   391  3.9000000000000D+00  0.0000000000000D+00  0.0000000000000D+00
   392  3.9100000000000D+00  0.0000000000000D+00  0.0000000000000D+00
   393  3.9200000000000D+00  0.0000000000000D+00  0.0000000000000D+00
   394  3.9300000000000D+00  0.0000000000000D+00  0.0000000000000D+00
   395  3.9400000000000D+00  0.0000000000000D+00  0.0000000000000D+00
   396  3.9500000000000D+00  0.0000000000000D+00  0.0000000000000D+00
   397  3.9600000000000D+00  0.0000000000000D+00  0.0000000000000D+00
   398  3.9700000000000D+00  0.0000000000000D+00  0.0000000000000D+00
   399  3.9800000000000D+00  0.0000000000000D+00  0.0000000000000D+00
   400  3.9900000000000D+00  0.0000000000000D+00  0.0000000000000D+00
   401  4.0000000000000D+00  0.0000000000000D+00  0.0000000000000D+00
   402  4.0100000000000D+00  0.0000000000000D+00  0.0000000000000D+00
   403  4.0200000000000D+00  0.0000000000000D+00  0.0000000000000D+00
   404  4.0300000000000D+00  0.0000000000000D+00  0.0000000000000D+00
   405  4.0400000000000D+00  0.0000000000000D+00  0.0000000000000D+00
   406  4.0500000000000D+00  0.0000000000000D+00  0.0000000000000D+00
   407  4.0600000000000D+00  0.0000000000000D+00  0.0000000000000D+00
   408  4.0700000000000D+00  0.0000000000000D+00  0.0000000000000D+00
   409  4.0800000000000D+00  0.0000000000000D+00  0.0000000000000D+00
   410  4.0900000000000D+00  0.0000000000000D+00  0.0000000000000D+00
   411  4.1000000000000D+00  0.0000000000000D+00  0.0000000000000D+00
   412  4.1100000000000D+00  0.0000000000000D+00  0.0000000000000D+00
   413  4.1200000000000D+00  0.0000000000000D+00  0.0000000000000D+00
   414  4.1300000000000D+00  0.0000000000000D+00  0.0000000000000D+00
   415  4.1400000000000D+00  0.0000000000000D+00  0.0000000000000D+00
   416  4.1500000000000D+00  0.0000000000000D+00  0.0000000000000D+00
   417  4.1600000000000D+00  0.0000000000000D+00  0.0000000000000D+00
   418  4.1700000000000D+00  0.0000000000000D+00  0.0000000000000D+00
   419  4.1800000000000D+00  0.0000000000000D+00  0.0000000000000D+00
   420  4.1900000000000D+00  0.0000000000000D+00  0.0000000000000D+00
   421  4.2000000000000D+00  0.0000000000000D+00  0.0000000000000D+00
   422  4.2100000000000D+00  0.0000000000000D+00  0.0000000000000D+00