Mo    ONCVPSP-3.3.0  r_core=   1.45541   1.45541   1.35488
     42.0000     14.0000      220408    zatom,zion,pspd
     8       2   2     4   600     0    pspcod,pspxc,lmax,lloc,mmax,r2well
  5.99000000  0.00000000  0.00000000    rchrg fchrg qchrg
     2     2     2     0     0    nproj
     1     1           extension_switch
   0                         1.3816871064173D+01  1.3577092903450D+00
     1  0.0000000000000D+00  1.8229823206539D-10 -4.7928477853176D-10
     2  1.0000000000000D-02  5.5857565186945D-02 -1.7900470179220D-02
     3  2.0000000000000D-02  1.1167462500120D-01 -3.5825425758050D-02
     4  3.0000000000000D-02  1.6741027179542D-01 -5.3798195279708D-02
     5  4.0000000000000D-02  2.2302279848587D-01 -7.1839806925083D-02
     6  5.0000000000000D-02  2.7846931157014D-01 -8.9967871585534D-02
     7  6.0000000000000D-02  3.3370535929808D-01 -1.0819550549919D-01
     8  7.0000000000000D-02  3.8868457983182D-01 -1.2653030507273D-01
     9  8.0000000000000D-02  4.4335837404831D-01 -1.4497338603135D-01
    10  9.0000000000000D-02  4.9767560741278D-01 -1.6351849844744D-01
    11  1.0000000000000D-01  5.5158234508524D-01 -1.8215122849867D-01
    12  1.1000000000000D-01  6.0502162411700D-01 -2.0084829700321D-01
    13  1.2000000000000D-01  6.5793326625269D-01 -2.1957696388155D-01
    14  1.3000000000000D-01  7.1025373447785D-01 -2.3829454670619D-01
    15  1.4000000000000D-01  7.6191603604626D-01 -2.5694806043233D-01
    16  1.5000000000000D-01  8.1284967428769D-01 -2.7547398426122D-01
    17  1.6000000000000D-01  8.6298065103987D-01 -2.9379816038415D-01
    18  1.7000000000000D-01  9.1223152107055D-01 -3.1183582809733D-01
    19  1.8000000000000D-01  9.6052149936302D-01 -3.2949179547852D-01
    20  1.9000000000000D-01  1.0077666216320D+00 -3.4666074948357D-01
    21  2.0000000000000D-01  1.0538799579247D+00 -3.6322770396921D-01
    22  2.1000000000000D-01  1.0987718786434D+00 -3.7906858378599D-01
    23  2.2000000000000D-01  1.1423503718132D+00 -3.9405094172664D-01
    24  2.3000000000000D-01  1.1845214099044D+00 -4.0803480377038D-01
    25  2.4000000000000D-01  1.2251893640222D+00 -4.2087363674506D-01
    26  2.5000000000000D-01  1.2642574627871D+00 -4.3241543124997D-01
    27  2.6000000000000D-01  1.3016282927646D+00 -4.4250389145100D-01
    28  2.7000000000000D-01  1.3372043368555D+00 -4.5097972219231D-01
    29  2.8000000000000D-01  1.3708885466424D+00 -4.5768200277201D-01
    30  2.9000000000000D-01  1.4025849442988D+00 -4.6244963571654D-01
    31  3.0000000000000D-01  1.4321992493172D+00 -4.6512285796957D-01
    32  3.1000000000000D-01  1.4596395249956D+00 -4.6554480109336D-01
    33  3.2000000000000D-01  1.4848168393499D+00 -4.6356308637668D-01
    34  3.3000000000000D-01  1.5076459348907D+00 -4.5903144015698D-01
    35  3.4000000000000D-01  1.5280459015185D+00 -4.5181131420539D-01
    36  3.5000000000000D-01  1.5459408466589D+00 -4.4177349569723D-01
    37  3.6000000000000D-01  1.5612605566748D+00 -4.2879969110126D-01
    38  3.7000000000000D-01  1.5739411435613D+00 -4.1278406827343D-01
    39  3.8000000000000D-01  1.5839256709500D+00 -3.9363474113785D-01
    40  3.9000000000000D-01  1.5911647535232D+00 -3.7127518157949D-01
    41  4.0000000000000D-01  1.5956171240655D+00 -3.4564554356103D-01
    42  4.1000000000000D-01  1.5972501625630D+00 -3.1670388500863D-01
    43  4.2000000000000D-01  1.5960403819888D+00 -2.8442727368579D-01
    44  4.3000000000000D-01  1.5919738656998D+00 -2.4881276408666D-01
    45  4.4000000000000D-01  1.5850466516974D+00 -2.0987823332640D-01
    46  4.5000000000000D-01  1.5752650593864D+00 -1.6766306507745D-01
    47  4.6000000000000D-01  1.5626459548838D+00 -1.2222867179221D-01
    48  4.7000000000000D-01  1.5472169513925D+00 -7.3658846752609D-02
    49  4.8000000000000D-01  1.5290165416536D+00 -2.2059938887882D-02
    50  4.9000000000000D-01  1.5080941600204D+00  3.2439155210552D-02
    51  5.0000000000000D-01  1.4845101722576D+00  8.9687186082946D-02
    52  5.1000000000000D-01  1.4583357917517D+00  1.4951093538413D-01
    53  5.2000000000000D-01  1.4296529214212D+00  2.1171578975940D-01
    54  5.3000000000000D-01  1.3985539212301D+00  2.7608650360900D-01
    55  5.4000000000000D-01  1.3651413018310D+00  3.4238814801084D-01
    56  5.5000000000000D-01  1.3295273454924D+00  4.1036724134070D-01
    57  5.6000000000000D-01  1.2918336560864D+00  4.7975305541502D-01
    58  5.7000000000000D-01  1.2521906405282D+00  5.5025908929783D-01
    59  5.8000000000000D-01  1.2107369246606D+00  6.2158470127299D-01
    60  5.9000000000000D-01  1.1676187071532D+00  6.9341688791259D-01
    61  6.0000000000000D-01  1.1229890555465D+00  7.6543219767155D-01
    62  6.1000000000000D-01  1.0770071490912D+00  8.3729876504187D-01
    63  6.2000000000000D-01  1.0298374735218D+00  9.0867845000483D-01
    64  6.3000000000000D-01  9.8164897335402D-01  9.7922906635019D-01
    65  6.4000000000000D-01  9.3261416769396D-01  1.0486066814007D+00
    66  6.5000000000000D-01  8.8290823590382D-01  1.1164679687910D+00
    67  6.6000000000000D-01  8.3270807976569D-01  1.1824725952254D+00
    68  6.7000000000000D-01  7.8219136903104D-01  1.2462856215794D+00
    69  6.8000000000000D-01  7.3153557742687D-01  1.3075798983234D+00
    70  6.9000000000000D-01  6.8091701631353D-01  1.3660384350455D+00
    71  7.0000000000000D-01  6.3050987324917D-01  1.4213567238326D+00
    72  7.1000000000000D-01  5.8048526271323D-01  1.4732449964381D+00
    73  7.2000000000000D-01  5.3101029617292D-01  1.5214303955254D+00
    74  7.3000000000000D-01  4.8224717854533D-01  1.5656590408215D+00
    75  7.4000000000000D-01  4.3435233791185D-01  1.6056979717491D+00
    76  7.5000000000000D-01  3.8747559508632D-01  1.6413369490101D+00
    77  7.6000000000000D-01  3.4175937931902D-01  1.6723900986853D+00
    78  7.7000000000000D-01  2.9733799604672D-01  1.6986973836549D+00
    79  7.8000000000000D-01  2.5433695216994D-01  1.7201258885485D+00
    80  7.9000000000000D-01  2.1287234386130D-01  1.7365709059728D+00
    81  8.0000000000000D-01  1.7305031138508D-01  1.7479568134356D+00
    82  8.1000000000000D-01  1.3496656484362D-01  1.7542377321636D+00
    83  8.2000000000000D-01  9.8705984166549D-02  1.7553979608867D+00
    84  8.3000000000000D-01  6.4342296028654D-02  1.7514521796173D+00
    85  8.4000000000000D-01  3.1937829728793D-02  1.7424454204618D+00
    86  8.5000000000000D-01  1.5433533909827D-03  1.7284528045526D+00
    87  8.6000000000000D-01 -2.6802008833462D-02  1.7095790462595D+00
    88  8.7000000000000D-01 -5.3070778570307D-02  1.6859577279041D+00
    89  8.8000000000000D-01 -7.7247044725241D-02  1.6577503502453D+00
    90  8.9000000000000D-01 -9.9326306051799D-02  1.6251451660039D+00
    91  9.0000000000000D-01 -1.1931523681028D-01  1.5883558056289D+00
    92  9.1000000000000D-01 -1.3723137818017D-01  1.5476197063574D+00
    93  9.2000000000000D-01 -1.5310275869621D-01  1.5031963573667D+00
    94  9.3000000000000D-01 -1.6696744755095D-01  1.4553653754385D+00
    95  9.4000000000000D-01 -1.7887304513909D-01  1.4044244270380D+00
    96  9.5000000000000D-01 -1.8887611570416D-01  1.3506870140338D+00
    97  9.6000000000000D-01 -1.9704156738350D-01  1.2944801414413D+00
    98  9.7000000000000D-01 -2.0344198532647D-01  1.2361418865387D+00
    99  9.8000000000000D-01 -2.0815692388147D-01  1.1760188894807D+00
   100  9.9000000000000D-01 -2.1127216410493D-01  1.1144637861030D+00
   101  1.0000000000000D+00 -2.1287894303527D-01  1.0518326039647D+00
   102  1.0100000000000D+00 -2.1307316130626D-01  9.8848214282894D-01
   103  1.0200000000000D+00 -2.1195457572623D-01  9.2476736068972D-01
   104  1.0300000000000D+00 -2.0962598344062D-01  8.6103878616557D-01
   105  1.0400000000000D+00 -2.0619240421788D-01  7.9763997757119D-01
   106  1.0500000000000D+00 -2.0176026723832D-01  7.3490504820127D-01
   107  1.0600000000000D+00 -1.9643660858192D-01  6.7315627654349D-01
   108  1.0700000000000D+00 -1.9032828530393D-01  6.1270181888002D-01
   109  1.0800000000000D+00 -1.8354121166914D-01  5.5383354049804D-01
   110  1.0900000000000D+00 -1.7617962272400D-01  4.9682498024170D-01
   111  1.1000000000000D+00 -1.6834536990218D-01  4.4192946135605D-01
   112  1.1100000000000D+00 -1.6013725296867D-01  3.8937836014819D-01
   113  1.1200000000000D+00 -1.5165039194666D-01  3.3937954162843D-01
   114  1.1300000000000D+00 -1.4297564220015D-01  2.9211596963861D-01
   115  1.1400000000000D+00 -1.3419905515182D-01  2.4774449655702D-01
   116  1.1500000000000D+00 -1.2540138665259D-01  2.0639483606778D-01
   117  1.1600000000000D+00 -1.1665765420514D-01  1.6816871969302D-01
   118  1.1700000000000D+00 -1.0803674370479D-01  1.3313923596828D-01
   119  1.1800000000000D+00 -9.9601065613671D-02  1.0135034863303D-01
   120  1.1900000000000D+00 -9.1406260074651D-02  7.2816588831599D-02
   121  1.2000000000000D+00 -8.3500949521190D-02  4.7522913178778D-02
   122  1.2100000000000D+00 -7.5926536900458D-02  2.5424718124621D-02
   123  1.2200000000000D+00 -6.8717046098669D-02  6.4479943018194D-03
   124  1.2300000000000D+00 -6.1899007849273D-02 -9.5103606968652D-03
   125  1.2400000000000D+00 -5.5491359092474D-02 -2.2582226190931D-02
   126  1.2500000000000D+00 -4.9505490605072D-02 -3.2927276068742D-02
   127  1.2600000000000D+00 -4.3944955566676D-02 -4.0733722743240D-02
   128  1.2700000000000D+00 -3.8805886431924D-02 -4.6215602051798D-02
   129  1.2800000000000D+00 -3.4078557530834D-02 -4.9604351057527D-02
   130  1.2900000000000D+00 -2.9749233884889D-02 -5.1139684620947D-02
   131  1.3000000000000D+00 -2.5801638624856D-02 -5.1062686932141D-02
   132  1.3100000000000D+00 -2.2217289478935D-02 -4.9614823398339D-02
   133  1.3200000000000D+00 -1.8976210981976D-02 -4.7035025073194D-02
   134  1.3300000000000D+00 -1.6057564494421D-02 -4.3557215313647D-02
   135  1.3400000000000D+00 -1.3440279542246D-02 -3.9407838694580D-02
   136  1.3500000000000D+00 -1.1103657286099D-02 -3.4803526290161D-02
   137  1.3600000000000D+00 -9.0279503310348D-03 -2.9948865090851D-02
   138  1.3700000000000D+00 -7.1949104025657D-03 -2.5034303463639D-02
   139  1.3800000000000D+00 -5.5882984340493D-03 -2.0234210572936D-02
   140  1.3900000000000D+00 -4.1943520485841D-03 -1.5705106246383D-02
   141  1.4000000000000D+00 -3.0022048748007D-03 -1.1584079553743D-02
   142  1.4100000000000D+00 -2.0047075151235D-03 -7.9898832687990D-03
   143  1.4200000000000D+00 -1.1966057167940D-03 -5.0101066530136D-03
   144  1.4300000000000D+00 -5.7612424344691D-04 -2.7008292302727D-03
   145  1.4400000000000D+00 -1.5570017898138D-04 -1.1903855445815D-03
   146  1.4500000000000D+00  6.1097711706072D-05 -4.6099916378016D-04
   147  1.4600000000000D+00  9.1161407408989D-05 -1.5765798606952D-04
   148  1.4700000000000D+00  2.0227593242250D-05 -1.9978323922675D-05
   149  1.4800000000000D+00 -1.5569382761931D-05  1.1682757197408D-05
   150  1.4900000000000D+00 -1.2172165169817D-06  7.2312570283078D-07
   151  1.5000000000000D+00  3.2148229292227D-06 -3.2457477167579D-06
   152  1.5100000000000D+00 -8.8425527426348D-08  2.4287918611768D-07
   153  1.5200000000000D+00 -2.4718181945568D-07  6.7893651165934D-07
   154  1.5300000000000D+00  0.0000000000000D+00  0.0000000000000D+00
   155  1.5400000000000D+00  0.0000000000000D+00  0.0000000000000D+00
   156  1.5500000000000D+00  0.0000000000000D+00  0.0000000000000D+00
   157  1.5600000000000D+00  0.0000000000000D+00  0.0000000000000D+00
   158  1.5700000000000D+00  0.0000000000000D+00  0.0000000000000D+00
   159  1.5800000000000D+00  0.0000000000000D+00  0.0000000000000D+00
   160  1.5900000000000D+00  0.0000000000000D+00  0.0000000000000D+00
   161  1.6000000000000D+00  0.0000000000000D+00  0.0000000000000D+00
   162  1.6100000000000D+00  0.0000000000000D+00  0.0000000000000D+00
   163  1.6200000000000D+00  0.0000000000000D+00  0.0000000000000D+00
   164  1.6300000000000D+00  0.0000000000000D+00  0.0000000000000D+00
   165  1.6400000000000D+00  0.0000000000000D+00  0.0000000000000D+00
   166  1.6500000000000D+00  0.0000000000000D+00  0.0000000000000D+00
   167  1.6600000000000D+00  0.0000000000000D+00  0.0000000000000D+00
   168  1.6700000000000D+00  0.0000000000000D+00  0.0000000000000D+00
   169  1.6800000000000D+00  0.0000000000000D+00  0.0000000000000D+00
   170  1.6900000000000D+00  0.0000000000000D+00  0.0000000000000D+00
   171  1.7000000000000D+00  0.0000000000000D+00  0.0000000000000D+00
   172  1.7100000000000D+00  0.0000000000000D+00  0.0000000000000D+00
   173  1.7200000000000D+00  0.0000000000000D+00  0.0000000000000D+00
   174  1.7300000000000D+00  0.0000000000000D+00  0.0000000000000D+00
   175  1.7400000000000D+00  0.0000000000000D+00  0.0000000000000D+00
   176  1.7500000000000D+00  0.0000000000000D+00  0.0000000000000D+00
   177  1.7600000000000D+00  0.0000000000000D+00  0.0000000000000D+00
   178  1.7700000000000D+00  0.0000000000000D+00  0.0000000000000D+00
   179  1.7800000000000D+00  0.0000000000000D+00  0.0000000000000D+00
   180  1.7900000000000D+00  0.0000000000000D+00  0.0000000000000D+00
   181  1.8000000000000D+00  0.0000000000000D+00  0.0000000000000D+00
   182  1.8100000000000D+00  0.0000000000000D+00  0.0000000000000D+00
   183  1.8200000000000D+00  0.0000000000000D+00  0.0000000000000D+00
   184  1.8300000000000D+00  0.0000000000000D+00  0.0000000000000D+00
   185  1.8400000000000D+00  0.0000000000000D+00  0.0000000000000D+00
   186  1.8500000000000D+00  0.0000000000000D+00  0.0000000000000D+00
   187  1.8600000000000D+00  0.0000000000000D+00  0.0000000000000D+00
   188  1.8700000000000D+00  0.0000000000000D+00  0.0000000000000D+00
   189  1.8800000000000D+00  0.0000000000000D+00  0.0000000000000D+00
   190  1.8900000000000D+00  0.0000000000000D+00  0.0000000000000D+00
   191  1.9000000000000D+00  0.0000000000000D+00  0.0000000000000D+00
   192  1.9100000000000D+00  0.0000000000000D+00  0.0000000000000D+00
   193  1.9200000000000D+00  0.0000000000000D+00  0.0000000000000D+00
   194  1.9300000000000D+00  0.0000000000000D+00  0.0000000000000D+00
   195  1.9400000000000D+00  0.0000000000000D+00  0.0000000000000D+00
   196  1.9500000000000D+00  0.0000000000000D+00  0.0000000000000D+00
   197  1.9600000000000D+00  0.0000000000000D+00  0.0000000000000D+00
   198  1.9700000000000D+00  0.0000000000000D+00  0.0000000000000D+00
   199  1.9800000000000D+00  0.0000000000000D+00  0.0000000000000D+00
   200  1.9900000000000D+00  0.0000000000000D+00  0.0000000000000D+00
   201  2.0000000000000D+00  0.0000000000000D+00  0.0000000000000D+00
   202  2.0100000000000D+00  0.0000000000000D+00  0.0000000000000D+00
   203  2.0200000000000D+00  0.0000000000000D+00  0.0000000000000D+00
   204  2.0300000000000D+00  0.0000000000000D+00  0.0000000000000D+00
   205  2.0400000000000D+00  0.0000000000000D+00  0.0000000000000D+00
   206  2.0500000000000D+00  0.0000000000000D+00  0.0000000000000D+00
   207  2.0600000000000D+00  0.0000000000000D+00  0.0000000000000D+00
   208  2.0700000000000D+00  0.0000000000000D+00  0.0000000000000D+00
   209  2.0800000000000D+00  0.0000000000000D+00  0.0000000000000D+00
   210  2.0900000000000D+00  0.0000000000000D+00  0.0000000000000D+00
   211  2.1000000000000D+00  0.0000000000000D+00  0.0000000000000D+00
   212  2.1100000000000D+00  0.0000000000000D+00  0.0000000000000D+00
   213  2.1200000000000D+00  0.0000000000000D+00  0.0000000000000D+00
   214  2.1300000000000D+00  0.0000000000000D+00  0.0000000000000D+00
   215  2.1400000000000D+00  0.0000000000000D+00  0.0000000000000D+00
   216  2.1500000000000D+00  0.0000000000000D+00  0.0000000000000D+00
   217  2.1600000000000D+00  0.0000000000000D+00  0.0000000000000D+00
   218  2.1700000000000D+00  0.0000000000000D+00  0.0000000000000D+00
   219  2.1800000000000D+00  0.0000000000000D+00  0.0000000000000D+00
   220  2.1900000000000D+00  0.0000000000000D+00  0.0000000000000D+00
   221  2.2000000000000D+00  0.0000000000000D+00  0.0000000000000D+00
   222  2.2100000000000D+00  0.0000000000000D+00  0.0000000000000D+00
   223  2.2200000000000D+00  0.0000000000000D+00  0.0000000000000D+00
   224  2.2300000000000D+00  0.0000000000000D+00  0.0000000000000D+00
   225  2.2400000000000D+00  0.0000000000000D+00  0.0000000000000D+00
   226  2.2500000000000D+00  0.0000000000000D+00  0.0000000000000D+00
   227  2.2600000000000D+00  0.0000000000000D+00  0.0000000000000D+00
   228  2.2700000000000D+00  0.0000000000000D+00  0.0000000000000D+00
   229  2.2800000000000D+00  0.0000000000000D+00  0.0000000000000D+00
   230  2.2900000000000D+00  0.0000000000000D+00  0.0000000000000D+00
   231  2.3000000000000D+00  0.0000000000000D+00  0.0000000000000D+00
   232  2.3100000000000D+00  0.0000000000000D+00  0.0000000000000D+00
   233  2.3200000000000D+00  0.0000000000000D+00  0.0000000000000D+00
   234  2.3300000000000D+00  0.0000000000000D+00  0.0000000000000D+00
   235  2.3400000000000D+00  0.0000000000000D+00  0.0000000000000D+00
   236  2.3500000000000D+00  0.0000000000000D+00  0.0000000000000D+00
   237  2.3600000000000D+00  0.0000000000000D+00  0.0000000000000D+00
   238  2.3700000000000D+00  0.0000000000000D+00  0.0000000000000D+00
   239  2.3800000000000D+00  0.0000000000000D+00  0.0000000000000D+00
   240  2.3900000000000D+00  0.0000000000000D+00  0.0000000000000D+00
   241  2.4000000000000D+00  0.0000000000000D+00  0.0000000000000D+00
   242  2.4100000000000D+00  0.0000000000000D+00  0.0000000000000D+00
   243  2.4200000000000D+00  0.0000000000000D+00  0.0000000000000D+00
   244  2.4300000000000D+00  0.0000000000000D+00  0.0000000000000D+00
   245  2.4400000000000D+00  0.0000000000000D+00  0.0000000000000D+00
   246  2.4500000000000D+00  0.0000000000000D+00  0.0000000000000D+00
   247  2.4600000000000D+00  0.0000000000000D+00  0.0000000000000D+00
   248  2.4700000000000D+00  0.0000000000000D+00  0.0000000000000D+00
   249  2.4800000000000D+00  0.0000000000000D+00  0.0000000000000D+00
   250  2.4900000000000D+00  0.0000000000000D+00  0.0000000000000D+00
   251  2.5000000000000D+00  0.0000000000000D+00  0.0000000000000D+00
   252  2.5100000000000D+00  0.0000000000000D+00  0.0000000000000D+00
   253  2.5200000000000D+00  0.0000000000000D+00  0.0000000000000D+00
   254  2.5300000000000D+00  0.0000000000000D+00  0.0000000000000D+00
   255  2.5400000000000D+00  0.0000000000000D+00  0.0000000000000D+00
   256  2.5500000000000D+00  0.0000000000000D+00  0.0000000000000D+00
   257  2.5600000000000D+00  0.0000000000000D+00  0.0000000000000D+00
   258  2.5700000000000D+00  0.0000000000000D+00  0.0000000000000D+00
   259  2.5800000000000D+00  0.0000000000000D+00  0.0000000000000D+00
   260  2.5900000000000D+00  0.0000000000000D+00  0.0000000000000D+00
   261  2.6000000000000D+00  0.0000000000000D+00  0.0000000000000D+00
   262  2.6100000000000D+00  0.0000000000000D+00  0.0000000000000D+00
   263  2.6200000000000D+00  0.0000000000000D+00  0.0000000000000D+00
   264  2.6300000000000D+00  0.0000000000000D+00  0.0000000000000D+00
   265  2.6400000000000D+00  0.0000000000000D+00  0.0000000000000D+00
   266  2.6500000000000D+00  0.0000000000000D+00  0.0000000000000D+00
   267  2.6600000000000D+00  0.0000000000000D+00  0.0000000000000D+00
   268  2.6700000000000D+00  0.0000000000000D+00  0.0000000000000D+00
   269  2.6800000000000D+00  0.0000000000000D+00  0.0000000000000D+00
   270  2.6900000000000D+00  0.0000000000000D+00  0.0000000000000D+00
   271  2.7000000000000D+00  0.0000000000000D+00  0.0000000000000D+00
   272  2.7100000000000D+00  0.0000000000000D+00  0.0000000000000D+00
   273  2.7200000000000D+00  0.0000000000000D+00  0.0000000000000D+00
   274  2.7300000000000D+00  0.0000000000000D+00  0.0000000000000D+00
   275  2.7400000000000D+00  0.0000000000000D+00  0.0000000000000D+00
   276  2.7500000000000D+00  0.0000000000000D+00  0.0000000000000D+00
   277  2.7600000000000D+00  0.0000000000000D+00  0.0000000000000D+00
   278  2.7700000000000D+00  0.0000000000000D+00  0.0000000000000D+00
   279  2.7800000000000D+00  0.0000000000000D+00  0.0000000000000D+00
   280  2.7900000000000D+00  0.0000000000000D+00  0.0000000000000D+00
   281  2.8000000000000D+00  0.0000000000000D+00  0.0000000000000D+00
   282  2.8100000000000D+00  0.0000000000000D+00  0.0000000000000D+00
   283  2.8200000000000D+00  0.0000000000000D+00  0.0000000000000D+00
   284  2.8300000000000D+00  0.0000000000000D+00  0.0000000000000D+00
   285  2.8400000000000D+00  0.0000000000000D+00  0.0000000000000D+00
   286  2.8500000000000D+00  0.0000000000000D+00  0.0000000000000D+00
   287  2.8600000000000D+00  0.0000000000000D+00  0.0000000000000D+00
   288  2.8700000000000D+00  0.0000000000000D+00  0.0000000000000D+00
   289  2.8800000000000D+00  0.0000000000000D+00  0.0000000000000D+00
   290  2.8900000000000D+00  0.0000000000000D+00  0.0000000000000D+00
   291  2.9000000000000D+00  0.0000000000000D+00  0.0000000000000D+00
   292  2.9100000000000D+00  0.0000000000000D+00  0.0000000000000D+00
   293  2.9200000000000D+00  0.0000000000000D+00  0.0000000000000D+00
   294  2.9300000000000D+00  0.0000000000000D+00  0.0000000000000D+00
   295  2.9400000000000D+00  0.0000000000000D+00  0.0000000000000D+00
   296  2.9500000000000D+00  0.0000000000000D+00  0.0000000000000D+00
   297  2.9600000000000D+00  0.0000000000000D+00  0.0000000000000D+00
   298  2.9700000000000D+00  0.0000000000000D+00  0.0000000000000D+00
   299  2.9800000000000D+00  0.0000000000000D+00  0.0000000000000D+00
   300  2.9900000000000D+00  0.0000000000000D+00  0.0000000000000D+00
   301  3.0000000000000D+00  0.0000000000000D+00  0.0000000000000D+00
   302  3.0100000000000D+00  0.0000000000000D+00  0.0000000000000D+00
   303  3.0200000000000D+00  0.0000000000000D+00  0.0000000000000D+00
   304  3.0300000000000D+00  0.0000000000000D+00  0.0000000000000D+00
   305  3.0400000000000D+00  0.0000000000000D+00  0.0000000000000D+00
   306  3.0500000000000D+00  0.0000000000000D+00  0.0000000000000D+00
   307  3.0600000000000D+00  0.0000000000000D+00  0.0000000000000D+00
   308  3.0700000000000D+00  0.0000000000000D+00  0.0000000000000D+00
   309  3.0800000000000D+00  0.0000000000000D+00  0.0000000000000D+00
   310  3.0900000000000D+00  0.0000000000000D+00  0.0000000000000D+00
   311  3.1000000000000D+00  0.0000000000000D+00  0.0000000000000D+00
   312  3.1100000000000D+00  0.0000000000000D+00  0.0000000000000D+00
   313  3.1200000000000D+00  0.0000000000000D+00  0.0000000000000D+00
   314  3.1300000000000D+00  0.0000000000000D+00  0.0000000000000D+00
   315  3.1400000000000D+00  0.0000000000000D+00  0.0000000000000D+00
   316  3.1500000000000D+00  0.0000000000000D+00  0.0000000000000D+00
   317  3.1600000000000D+00  0.0000000000000D+00  0.0000000000000D+00
   318  3.1700000000000D+00  0.0000000000000D+00  0.0000000000000D+00
   319  3.1800000000000D+00  0.0000000000000D+00  0.0000000000000D+00
   320  3.1900000000000D+00  0.0000000000000D+00  0.0000000000000D+00
   321  3.2000000000000D+00  0.0000000000000D+00  0.0000000000000D+00
   322  3.2100000000000D+00  0.0000000000000D+00  0.0000000000000D+00
   323  3.2200000000000D+00  0.0000000000000D+00  0.0000000000000D+00
   324  3.2300000000000D+00  0.0000000000000D+00  0.0000000000000D+00
   325  3.2400000000000D+00  0.0000000000000D+00  0.0000000000000D+00
   326  3.2500000000000D+00  0.0000000000000D+00  0.0000000000000D+00
   327  3.2600000000000D+00  0.0000000000000D+00  0.0000000000000D+00
   328  3.2700000000000D+00  0.0000000000000D+00  0.0000000000000D+00
   329  3.2800000000000D+00  0.0000000000000D+00  0.0000000000000D+00
   330  3.2900000000000D+00  0.0000000000000D+00  0.0000000000000D+00
   331  3.3000000000000D+00  0.0000000000000D+00  0.0000000000000D+00
   332  3.3100000000000D+00  0.0000000000000D+00  0.0000000000000D+00
   333  3.3200000000000D+00  0.0000000000000D+00  0.0000000000000D+00
   334  3.3300000000000D+00  0.0000000000000D+00  0.0000000000000D+00
   335  3.3400000000000D+00  0.0000000000000D+00  0.0000000000000D+00
   336  3.3500000000000D+00  0.0000000000000D+00  0.0000000000000D+00
   337  3.3600000000000D+00  0.0000000000000D+00  0.0000000000000D+00
   338  3.3700000000000D+00  0.0000000000000D+00  0.0000000000000D+00
   339  3.3800000000000D+00  0.0000000000000D+00  0.0000000000000D+00
   340  3.3900000000000D+00  0.0000000000000D+00  0.0000000000000D+00
   341  3.4000000000000D+00  0.0000000000000D+00  0.0000000000000D+00
   342  3.4100000000000D+00  0.0000000000000D+00  0.0000000000000D+00
   343  3.4200000000000D+00  0.0000000000000D+00  0.0000000000000D+00
   344  3.4300000000000D+00  0.0000000000000D+00  0.0000000000000D+00
   345  3.4400000000000D+00  0.0000000000000D+00  0.0000000000000D+00
   346  3.4500000000000D+00  0.0000000000000D+00  0.0000000000000D+00
   347  3.4600000000000D+00  0.0000000000000D+00  0.0000000000000D+00
   348  3.4700000000000D+00  0.0000000000000D+00  0.0000000000000D+00
   349  3.4800000000000D+00  0.0000000000000D+00  0.0000000000000D+00
   350  3.4900000000000D+00  0.0000000000000D+00  0.0000000000000D+00
   351  3.5000000000000D+00  0.0000000000000D+00  0.0000000000000D+00
   352  3.5100000000000D+00  0.0000000000000D+00  0.0000000000000D+00
   353  3.5200000000000D+00  0.0000000000000D+00  0.0000000000000D+00
   354  3.5300000000000D+00  0.0000000000000D+00  0.0000000000000D+00
   355  3.5400000000000D+00  0.0000000000000D+00  0.0000000000000D+00
   356  3.5500000000000D+00  0.0000000000000D+00  0.0000000000000D+00
   357  3.5600000000000D+00  0.0000000000000D+00  0.0000000000000D+00
   358  3.5700000000000D+00  0.0000000000000D+00  0.0000000000000D+00
   359  3.5800000000000D+00  0.0000000000000D+00  0.0000000000000D+00
   360  3.5900000000000D+00  0.0000000000000D+00  0.0000000000000D+00
   361  3.6000000000000D+00  0.0000000000000D+00  0.0000000000000D+00
   362  3.6100000000000D+00  0.0000000000000D+00  0.0000000000000D+00
   363  3.6200000000000D+00  0.0000000000000D+00  0.0000000000000D+00
   364  3.6300000000000D+00  0.0000000000000D+00  0.0000000000000D+00
   365  3.6400000000000D+00  0.0000000000000D+00  0.0000000000000D+00
   366  3.6500000000000D+00  0.0000000000000D+00  0.0000000000000D+00
   367  3.6600000000000D+00  0.0000000000000D+00  0.0000000000000D+00
   368  3.6700000000000D+00  0.0000000000000D+00  0.0000000000000D+00
   369  3.6800000000000D+00  0.0000000000000D+00  0.0000000000000D+00
   370  3.6900000000000D+00  0.0000000000000D+00  0.0000000000000D+00
   371  3.7000000000000D+00  0.0000000000000D+00  0.0000000000000D+00
   372  3.7100000000000D+00  0.0000000000000D+00  0.0000000000000D+00
   373  3.7200000000000D+00  0.0000000000000D+00  0.0000000000000D+00
   374  3.7300000000000D+00  0.0000000000000D+00  0.0000000000000D+00
   375  3.7400000000000D+00  0.0000000000000D+00  0.0000000000000D+00
   376  3.7500000000000D+00  0.0000000000000D+00  0.0000000000000D+00
   377  3.7600000000000D+00  0.0000000000000D+00  0.0000000000000D+00
   378  3.7700000000000D+00  0.0000000000000D+00  0.0000000000000D+00
   379  3.7800000000000D+00  0.0000000000000D+00  0.0000000000000D+00
   380  3.7900000000000D+00  0.0000000000000D+00  0.0000000000000D+00
   381  3.8000000000000D+00  0.0000000000000D+00  0.0000000000000D+00
   382  3.8100000000000D+00  0.0000000000000D+00  0.0000000000000D+00
   383  3.8200000000000D+00  0.0000000000000D+00  0.0000000000000D+00
   384  3.8300000000000D+00  0.0000000000000D+00  0.0000000000000D+00
   385  3.8400000000000D+00  0.0000000000000D+00  0.0000000000000D+00
   386  3.8500000000000D+00  0.0000000000000D+00  0.0000000000000D+00
   387  3.8600000000000D+00  0.0000000000000D+00  0.0000000000000D+00
   388  3.8700000000000D+00  0.0000000000000D+00  0.0000000000000D+00
   389  3.8800000000000D+00  0.0000000000000D+00  0.0000000000000D+00
   390  3.8900000000000D+00  0.0000000000000D+00  0.0000000000000D+00
   391  3.9000000000000D+00  0.0000000000000D+00  0.0000000000000D+00
   392  3.9100000000000D+00  0.0000000000000D+00  0.0000000000000D+00
   393  3.9200000000000D+00  0.0000000000000D+00  0.0000000000000D+00
   394  3.9300000000000D+00  0.0000000000000D+00  0.0000000000000D+00
   395  3.9400000000000D+00  0.0000000000000D+00  0.0000000000000D+00
   396  3.9500000000000D+00  0.0000000000000D+00  0.0000000000000D+00
   397  3.9600000000000D+00  0.0000000000000D+00  0.0000000000000D+00
   398  3.9700000000000D+00  0.0000000000000D+00  0.0000000000000D+00
   399  3.9800000000000D+00  0.0000000000000D+00  0.0000000000000D+00
   400  3.9900000000000D+00  0.0000000000000D+00  0.0000000000000D+00
   401  4.0000000000000D+00  0.0000000000000D+00  0.0000000000000D+00
   402  4.0100000000000D+00  0.0000000000000D+00  0.0000000000000D+00
   403  4.0200000000000D+00  0.0000000000000D+00  0.0000000000000D+00
   404  4.0300000000000D+00  0.0000000000000D+00  0.0000000000000D+00
   405  4.0400000000000D+00  0.0000000000000D+00  0.0000000000000D+00
   406  4.0500000000000D+00  0.0000000000000D+00  0.0000000000000D+00
   407  4.0600000000000D+00  0.0000000000000D+00  0.0000000000000D+00
   408  4.0700000000000D+00  0.0000000000000D+00  0.0000000000000D+00
   409  4.0800000000000D+00  0.0000000000000D+00  0.0000000000000D+00
   410  4.0900000000000D+00  0.0000000000000D+00  0.0000000000000D+00
   411  4.1000000000000D+00  0.0000000000000D+00  0.0000000000000D+00
   412  4.1100000000000D+00  0.0000000000000D+00  0.0000000000000D+00
   413  4.1200000000000D+00  0.0000000000000D+00  0.0000000000000D+00
   414  4.1300000000000D+00  0.0000000000000D+00  0.0000000000000D+00
   415  4.1400000000000D+00  0.0000000000000D+00  0.0000000000000D+00
   416  4.1500000000000D+00  0.0000000000000D+00  0.0000000000000D+00
   417  4.1600000000000D+00  0.0000000000000D+00  0.0000000000000D+00
   418  4.1700000000000D+00  0.0000000000000D+00  0.0000000000000D+00
   419  4.1800000000000D+00  0.0000000000000D+00  0.0000000000000D+00
   420  4.1900000000000D+00  0.0000000000000D+00  0.0000000000000D+00
   421  4.2000000000000D+00  0.0000000000000D+00  0.0000000000000D+00
   422  4.2100000000000D+00  0.0000000000000D+00  0.0000000000000D+00