Sc    ONCVPSP-3.3.0  r_core=   1.35663   1.35663   1.66161
     21.0000     11.0000      220408    zatom,zion,pspd
     8       2   2     4   600     0    pspcod,pspxc,lmax,lloc,mmax,r2well
  5.99000000  0.00000000  0.00000000    rchrg fchrg qchrg
     2     2     2     0     0    nproj
     1     1           extension_switch
   0                         1.0752626205812D+01  9.4502632365712D-01
     1  0.0000000000000D+00  3.5150538035822D-09 -1.6327405816252D-08
     2  1.0000000000000D-02  7.5186486210453D-02 -2.3184804972571D-02
     3  2.0000000000000D-02  1.5026267256054D-01 -4.6489413255951D-02
     4  3.0000000000000D-02  2.2511709304485D-01 -7.0026757931868D-02
     5  4.0000000000000D-02  2.9963598768713D-01 -9.3896212087348D-02
     6  5.0000000000000D-02  3.7370225042046D-01 -1.1817725564448D-01
     7  6.0000000000000D-02  4.4719448821722D-01 -1.4292366635569D-01
     8  7.0000000000000D-02  5.1998622430202D-01 -1.6815838994268D-01
     9  8.0000000000000D-02  5.9194527476547D-01 -1.9386922802995D-01
    10  9.0000000000000D-02  6.6293332365956D-01 -2.2000546284262D-01
    11  1.0000000000000D-01  7.3280571679475D-01 -2.4647551506516D-01
    12  1.1000000000000D-01  8.0141148908830D-01 -2.7314570632045D-01
    13  1.2000000000000D-01  8.6859363455949D-01 -2.9984017101304D-01
    14  1.3000000000000D-01  9.3418962206402D-01 -3.2634193441426D-01
    15  1.4000000000000D-01  9.9803215374832D-01 -3.5239514550463D-01
    16  1.5000000000000D-01  1.0599501571287D+00 -3.7770842490009D-01
    17  1.6000000000000D-01  1.1197699958038D+00 -4.0195926083864D-01
    18  1.7000000000000D-01  1.1773168782277D+00 -4.2479936033960D-01
    19  1.8000000000000D-01  1.2324164388467D+00 -4.4586083888587D-01
    20  1.9000000000000D-01  1.2848964613413D+00 -4.6476311088449D-01
    21  2.0000000000000D-01  1.3345887098461D+00 -4.8112032524183D-01
    22  2.1000000000000D-01  1.3813308309175D+00 -4.9454917607871D-01
    23  2.2000000000000D-01  1.4249682867747D+00 -5.0467690825900D-01
    24  2.3000000000000D-01  1.4653562789980D+00 -5.1114933127377D-01
    25  2.4000000000000D-01  1.5023616214723D+00 -5.1363865327127D-01
    26  2.5000000000000D-01  1.5358645219238D+00 -5.1185094971376D-01
    27  2.6000000000000D-01  1.5657602329063D+00 -5.0553308823051D-01
    28  2.7000000000000D-01  1.5919605355184D+00 -4.9447894257646D-01
    29  2.8000000000000D-01  1.6143950224242D+00 -4.7853474395228D-01
    30  2.9000000000000D-01  1.6330121508334D+00 -4.5760343695297D-01
    31  3.0000000000000D-01  1.6477800408831D+00 -4.3164792966008D-01
    32  3.1000000000000D-01  1.6586870002406D+00 -4.0069315237360D-01
    33  3.2000000000000D-01  1.6657417615998D+00 -3.6482686661921D-01
    34  3.3000000000000D-01  1.6689734259310D+00 -3.2419919474200D-01
    35  3.4000000000000D-01  1.6684311107295D+00 -2.7902086994443D-01
    36  3.5000000000000D-01  1.6641833089404D+00 -2.2956023635423D-01
    37  3.6000000000000D-01  1.6563169705720D+00 -1.7613905792598D-01
    38  3.7000000000000D-01  1.6449363250927D+00 -1.1912722299305D-01
    39  3.8000000000000D-01  1.6301614684014D+00 -5.8936457439065D-02
    40  3.9000000000000D-01  1.6121267433310D+00  3.9868168816249D-03
    41  4.0000000000000D-01  1.5909789471648D+00  6.9169321242869D-02
    42  4.1000000000000D-01  1.5668754034148D+00  1.3611928239055D-01
    43  4.2000000000000D-01  1.5399819380277D+00  2.0433513079970D-01
    44  4.3000000000000D-01  1.5104708021873D+00  2.7331433876919D-01
    45  4.4000000000000D-01  1.4785185849125D+00  3.4256219808355D-01
    46  4.5000000000000D-01  1.4443041586824D+00  4.1160033745363D-01
    47  4.6000000000000D-01  1.4080067003512D+00  4.7997478512781D-01
    48  4.7000000000000D-01  1.3698038276548D+00  5.4726339185536D-01
    49  4.8000000000000D-01  1.3298698887130D+00  6.1308244358299D-01
    50  4.9000000000000D-01  1.2883744381433D+00  6.7709231158098D-01
    51  5.0000000000000D-01  1.2454809288215D+00  7.3900200971626D-01
    52  5.1000000000000D-01  1.2013456430488D+00  7.9857255383423D-01
    53  5.2000000000000D-01  1.1561168810325D+00  8.5561904611443D-01
    54  5.3000000000000D-01  1.1099344182969D+00  9.1001143719392D-01
    55  5.4000000000000D-01  1.0629292370601D+00  9.6167395007968D-01
    56  5.5000000000000D-01  1.0152235298815D+00  1.0105831817811D+00
    57  5.6000000000000D-01  9.6693096718239D-01  1.0567649302899D+00
    58  5.7000000000000D-01  9.1815721370949D-01  1.1002898254138D+00
    59  5.8000000000000D-01  8.6900067280940D-01  1.1412678712211D+00
    60  5.9000000000000D-01  8.1955343166869D-01  1.1798420347758D+00
    61  6.0000000000000D-01  7.6990237557140D-01  1.2161810398420D+00
    62  6.1000000000000D-01  7.2013043487686D-01  1.2504715446497D+00
    63  6.2000000000000D-01  6.7031792492371D-01  1.2829098991733D+00
    64  6.3000000000000D-01  6.2054393651145D-01  1.3136936892687D+00
    65  6.4000000000000D-01  5.7088773307697D-01  1.3430132820631D+00
    66  6.5000000000000D-01  5.2143011020065D-01  1.3710435890682D+00
    67  6.6000000000000D-01  4.7225467368669D-01  1.3979362603812D+00
    68  6.7000000000000D-01  4.2344899412802D-01  1.4238125152437D+00
    69  6.8000000000000D-01  3.7510559860686D-01  1.4487568010392D+00
    70  6.9000000000000D-01  3.2732276389677D-01  1.4728114550161D+00
    71  7.0000000000000D-01  2.8020508016629D-01  1.4959725208718D+00
    72  7.1000000000000D-01  2.3386375963238D-01  1.5181868463374D+00
    73  7.2000000000000D-01  1.8841667077383D-01  1.5393505585085D+00
    74  7.3000000000000D-01  1.4398808540726D-01  1.5593089817734D+00
    75  7.4000000000000D-01  1.0070813305003D-01  1.5778580292386D+00
    76  7.5000000000000D-01  5.8711964348626D-02  1.5947470634931D+00
    77  7.6000000000000D-01  1.8138632770064D-02  1.6096831871707D+00
    78  7.7000000000000D-01 -2.0870288891575D-02  1.6223368886635D+00
    79  7.8000000000000D-01 -5.8172333609534D-02  1.6323489347439D+00
    80  7.9000000000000D-01 -9.3625976613206D-02  1.6393383701570D+00
    81  8.0000000000000D-01 -1.2709264705868D-01  1.6429114554407D+00
    82  8.1000000000000D-01 -1.5843887341194D-01  1.6426713489375D+00
    83  8.2000000000000D-01 -1.8753851670433D-01  1.6382283178203D+00
    84  8.3000000000000D-01 -2.1427504244700D-01  1.6292102465076D+00
    85  8.4000000000000D-01 -2.3854377970901D-01  1.6152731995137D+00
    86  8.5000000000000D-01 -2.6025411473937D-01  1.5961117899022D+00
    87  8.6000000000000D-01 -2.7933156659000D-01  1.5714691042813D+00
    88  8.7000000000000D-01 -2.9571969348796D-01  1.5411459407691D+00
    89  8.8000000000000D-01 -3.0938178119900D-01  1.5050091275152D+00
    90  8.9000000000000D-01 -3.2030226828037D-01  1.4629987060027D+00
    91  9.0000000000000D-01 -3.2848786786986D-01  1.4151337851561D+00
    92  9.1000000000000D-01 -3.3396835140875D-01  1.3615168988170D+00
    93  9.2000000000000D-01 -3.3679696632961D-01  1.3023367298687D+00
    94  9.3000000000000D-01 -3.3705046711794D-01  1.2378690985485D+00
    95  9.4000000000000D-01 -3.3482874712218D-01  1.1684761495476D+00
    96  9.5000000000000D-01 -3.3025406686648D-01  1.0946037115536D+00
    97  9.6000000000000D-01 -3.2346988323244D-01  1.0167768430884D+00
    98  9.7000000000000D-01 -3.1463929250882D-01  9.3559361884235D-01
    99  9.8000000000000D-01 -3.0394310892132D-01  8.5171725102357D-01
   100  9.9000000000000D-01 -2.9157760811748D-01  7.6586667708828D-01
   101  1.0000000000000D+00 -2.7775197307142D-01  6.7880578272660D-01
   102  1.0100000000000D+00 -2.6268548652441D-01  5.9133146026006D-01
   103  1.0200000000000D+00 -2.4660452020284D-01  5.0426073148020D-01
   104  1.0300000000000D+00 -2.2973937606573D-01  4.1841718765561D-01
   105  1.0400000000000D+00 -2.1232103872417D-01  3.3461701793516D-01
   106  1.0500000000000D+00 -1.9457790073176D-01  2.5365490965740D-01
   107  1.0600000000000D+00 -1.7673252392179D-01  1.7629011134339D-01
   108  1.0700000000000D+00 -1.5899849983599D-01  1.0323294893601D-01
   109  1.0800000000000D+00 -1.4157747094879D-01  3.5132079964040D-02
   110  1.0900000000000D+00 -1.2465637145351D-01 -2.7437242990503D-02
   111  1.1000000000000D+00 -1.0840494258505D-01 -8.3983645480356D-02
   112  1.1100000000000D+00 -9.2973572223093D-02 -1.3410861101232D-01
   113  1.1200000000000D+00 -7.8491501726341D-02 -1.7751376880506D-01
   114  1.1300000000000D+00 -6.5065435774593D-02 -2.1400632393507D-01
   115  1.1400000000000D+00 -5.2778582450025D-02 -2.4350250386224D-01
   116  1.1500000000000D+00 -4.1690143190829D-02 -2.6602893050621D-01
   117  1.1600000000000D+00 -3.1835260756460D-02 -2.8172188034069D-01
   118  1.1700000000000D+00 -2.3225424749287D-02 -2.9082443486081D-01
   119  1.1800000000000D+00 -1.5849324928738D-02 -2.9368156698983D-01
   120  1.1900000000000D+00 -9.6741328025292D-03 -2.9073325428018D-01
   121  1.2000000000000D+00 -4.6471815071767D-03 -2.8250575844097D-01
   122  1.2100000000000D+00 -6.9800566016351D-04 -2.6960124946138D-01
   123  1.2200000000000D+00  2.2593021623362D-03 -2.5268597597262D-01
   124  1.2300000000000D+00  4.3234738189774D-03 -2.3247724002824D-01
   125  1.2400000000000D+00  5.6032449408196D-03 -2.0972944649219D-01
   126  1.2500000000000D+00  6.2143937002059D-03 -1.8521951776809D-01
   127  1.2600000000000D+00  6.2767075332707D-03 -1.5973199272052D-01
   128  1.2700000000000D+00  5.9109496781250D-03 -1.3404414557761D-01
   129  1.2800000000000D+00  5.2358761029231D-03 -1.0891135197307D-01
   130  1.2900000000000D+00  4.3654157873590D-03 -8.5053249255957D-02
   131  1.3000000000000D+00  3.4059321006912D-03 -6.3140246098939D-02
   132  1.3100000000000D+00  2.4544843915394D-03 -4.3786542198009D-02
   133  1.3200000000000D+00  1.5953526911371D-03 -2.7531907275399D-02
   134  1.3300000000000D+00  8.8882809636100D-04 -1.4727017127717D-02
   135  1.3400000000000D+00  3.9970606134829D-04 -5.9196694477214D-03
   136  1.3500000000000D+00  1.6768859435437D-04 -1.4582794175642D-03
   137  1.3600000000000D+00  7.1988697886892D-05 -2.5730704175157D-05
   138  1.3700000000000D+00  1.1160433373135D-05  5.3065642312257D-05
   139  1.3800000000000D+00 -6.4836879912664D-06 -5.0917408930802D-05
   140  1.3900000000000D+00  2.4652963933977D-07  1.0403195246407D-06
   141  1.4000000000000D+00  1.3767195089502D-06  7.1490984890065D-06
   142  1.4100000000000D+00 -2.0836131056400D-07  6.0192364492134D-07
   143  1.4200000000000D+00 -1.3988855273277D-07  4.0411642312941D-07
   144  1.4300000000000D+00  0.0000000000000D+00  0.0000000000000D+00
   145  1.4400000000000D+00  0.0000000000000D+00  0.0000000000000D+00
   146  1.4500000000000D+00  0.0000000000000D+00  0.0000000000000D+00
   147  1.4600000000000D+00  0.0000000000000D+00  0.0000000000000D+00
   148  1.4700000000000D+00  0.0000000000000D+00  0.0000000000000D+00
   149  1.4800000000000D+00  0.0000000000000D+00  0.0000000000000D+00
   150  1.4900000000000D+00  0.0000000000000D+00  0.0000000000000D+00
   151  1.5000000000000D+00  0.0000000000000D+00  0.0000000000000D+00
   152  1.5100000000000D+00  0.0000000000000D+00  0.0000000000000D+00
   153  1.5200000000000D+00  0.0000000000000D+00  0.0000000000000D+00
   154  1.5300000000000D+00  0.0000000000000D+00  0.0000000000000D+00
   155  1.5400000000000D+00  0.0000000000000D+00  0.0000000000000D+00
   156  1.5500000000000D+00  0.0000000000000D+00  0.0000000000000D+00
   157  1.5600000000000D+00  0.0000000000000D+00  0.0000000000000D+00
   158  1.5700000000000D+00  0.0000000000000D+00  0.0000000000000D+00
   159  1.5800000000000D+00  0.0000000000000D+00  0.0000000000000D+00
   160  1.5900000000000D+00  0.0000000000000D+00  0.0000000000000D+00
   161  1.6000000000000D+00  0.0000000000000D+00  0.0000000000000D+00
   162  1.6100000000000D+00  0.0000000000000D+00  0.0000000000000D+00
   163  1.6200000000000D+00  0.0000000000000D+00  0.0000000000000D+00
   164  1.6300000000000D+00  0.0000000000000D+00  0.0000000000000D+00
   165  1.6400000000000D+00  0.0000000000000D+00  0.0000000000000D+00
   166  1.6500000000000D+00  0.0000000000000D+00  0.0000000000000D+00
   167  1.6600000000000D+00  0.0000000000000D+00  0.0000000000000D+00
   168  1.6700000000000D+00  0.0000000000000D+00  0.0000000000000D+00
   169  1.6800000000000D+00  0.0000000000000D+00  0.0000000000000D+00
   170  1.6900000000000D+00  0.0000000000000D+00  0.0000000000000D+00
   171  1.7000000000000D+00  0.0000000000000D+00  0.0000000000000D+00
   172  1.7100000000000D+00  0.0000000000000D+00  0.0000000000000D+00
   173  1.7200000000000D+00  0.0000000000000D+00  0.0000000000000D+00
   174  1.7300000000000D+00  0.0000000000000D+00  0.0000000000000D+00
   175  1.7400000000000D+00  0.0000000000000D+00  0.0000000000000D+00
   176  1.7500000000000D+00  0.0000000000000D+00  0.0000000000000D+00
   177  1.7600000000000D+00  0.0000000000000D+00  0.0000000000000D+00
   178  1.7700000000000D+00  0.0000000000000D+00  0.0000000000000D+00
   179  1.7800000000000D+00  0.0000000000000D+00  0.0000000000000D+00
   180  1.7900000000000D+00  0.0000000000000D+00  0.0000000000000D+00
   181  1.8000000000000D+00  0.0000000000000D+00  0.0000000000000D+00
   182  1.8100000000000D+00  0.0000000000000D+00  0.0000000000000D+00
   183  1.8200000000000D+00  0.0000000000000D+00  0.0000000000000D+00
   184  1.8300000000000D+00  0.0000000000000D+00  0.0000000000000D+00
   185  1.8400000000000D+00  0.0000000000000D+00  0.0000000000000D+00
   186  1.8500000000000D+00  0.0000000000000D+00  0.0000000000000D+00
   187  1.8600000000000D+00  0.0000000000000D+00  0.0000000000000D+00
   188  1.8700000000000D+00  0.0000000000000D+00  0.0000000000000D+00
   189  1.8800000000000D+00  0.0000000000000D+00  0.0000000000000D+00
   190  1.8900000000000D+00  0.0000000000000D+00  0.0000000000000D+00
   191  1.9000000000000D+00  0.0000000000000D+00  0.0000000000000D+00
   192  1.9100000000000D+00  0.0000000000000D+00  0.0000000000000D+00
   193  1.9200000000000D+00  0.0000000000000D+00  0.0000000000000D+00
   194  1.9300000000000D+00  0.0000000000000D+00  0.0000000000000D+00
   195  1.9400000000000D+00  0.0000000000000D+00  0.0000000000000D+00
   196  1.9500000000000D+00  0.0000000000000D+00  0.0000000000000D+00
   197  1.9600000000000D+00  0.0000000000000D+00  0.0000000000000D+00
   198  1.9700000000000D+00  0.0000000000000D+00  0.0000000000000D+00
   199  1.9800000000000D+00  0.0000000000000D+00  0.0000000000000D+00
   200  1.9900000000000D+00  0.0000000000000D+00  0.0000000000000D+00
   201  2.0000000000000D+00  0.0000000000000D+00  0.0000000000000D+00
   202  2.0100000000000D+00  0.0000000000000D+00  0.0000000000000D+00
   203  2.0200000000000D+00  0.0000000000000D+00  0.0000000000000D+00
   204  2.0300000000000D+00  0.0000000000000D+00  0.0000000000000D+00
   205  2.0400000000000D+00  0.0000000000000D+00  0.0000000000000D+00
   206  2.0500000000000D+00  0.0000000000000D+00  0.0000000000000D+00
   207  2.0600000000000D+00  0.0000000000000D+00  0.0000000000000D+00
   208  2.0700000000000D+00  0.0000000000000D+00  0.0000000000000D+00
   209  2.0800000000000D+00  0.0000000000000D+00  0.0000000000000D+00
   210  2.0900000000000D+00  0.0000000000000D+00  0.0000000000000D+00
   211  2.1000000000000D+00  0.0000000000000D+00  0.0000000000000D+00
   212  2.1100000000000D+00  0.0000000000000D+00  0.0000000000000D+00
   213  2.1200000000000D+00  0.0000000000000D+00  0.0000000000000D+00
   214  2.1300000000000D+00  0.0000000000000D+00  0.0000000000000D+00
   215  2.1400000000000D+00  0.0000000000000D+00  0.0000000000000D+00
   216  2.1500000000000D+00  0.0000000000000D+00  0.0000000000000D+00
   217  2.1600000000000D+00  0.0000000000000D+00  0.0000000000000D+00
   218  2.1700000000000D+00  0.0000000000000D+00  0.0000000000000D+00
   219  2.1800000000000D+00  0.0000000000000D+00  0.0000000000000D+00
   220  2.1900000000000D+00  0.0000000000000D+00  0.0000000000000D+00
   221  2.2000000000000D+00  0.0000000000000D+00  0.0000000000000D+00
   222  2.2100000000000D+00  0.0000000000000D+00  0.0000000000000D+00
   223  2.2200000000000D+00  0.0000000000000D+00  0.0000000000000D+00
   224  2.2300000000000D+00  0.0000000000000D+00  0.0000000000000D+00
   225  2.2400000000000D+00  0.0000000000000D+00  0.0000000000000D+00
   226  2.2500000000000D+00  0.0000000000000D+00  0.0000000000000D+00
   227  2.2600000000000D+00  0.0000000000000D+00  0.0000000000000D+00
   228  2.2700000000000D+00  0.0000000000000D+00  0.0000000000000D+00
   229  2.2800000000000D+00  0.0000000000000D+00  0.0000000000000D+00
   230  2.2900000000000D+00  0.0000000000000D+00  0.0000000000000D+00
   231  2.3000000000000D+00  0.0000000000000D+00  0.0000000000000D+00
   232  2.3100000000000D+00  0.0000000000000D+00  0.0000000000000D+00
   233  2.3200000000000D+00  0.0000000000000D+00  0.0000000000000D+00
   234  2.3300000000000D+00  0.0000000000000D+00  0.0000000000000D+00
   235  2.3400000000000D+00  0.0000000000000D+00  0.0000000000000D+00
   236  2.3500000000000D+00  0.0000000000000D+00  0.0000000000000D+00
   237  2.3600000000000D+00  0.0000000000000D+00  0.0000000000000D+00
   238  2.3700000000000D+00  0.0000000000000D+00  0.0000000000000D+00
   239  2.3800000000000D+00  0.0000000000000D+00  0.0000000000000D+00
   240  2.3900000000000D+00  0.0000000000000D+00  0.0000000000000D+00
   241  2.4000000000000D+00  0.0000000000000D+00  0.0000000000000D+00
   242  2.4100000000000D+00  0.0000000000000D+00  0.0000000000000D+00
   243  2.4200000000000D+00  0.0000000000000D+00  0.0000000000000D+00
   244  2.4300000000000D+00  0.0000000000000D+00  0.0000000000000D+00
   245  2.4400000000000D+00  0.0000000000000D+00  0.0000000000000D+00
   246  2.4500000000000D+00  0.0000000000000D+00  0.0000000000000D+00
   247  2.4600000000000D+00  0.0000000000000D+00  0.0000000000000D+00
   248  2.4700000000000D+00  0.0000000000000D+00  0.0000000000000D+00
   249  2.4800000000000D+00  0.0000000000000D+00  0.0000000000000D+00
   250  2.4900000000000D+00  0.0000000000000D+00  0.0000000000000D+00
   251  2.5000000000000D+00  0.0000000000000D+00  0.0000000000000D+00
   252  2.5100000000000D+00  0.0000000000000D+00  0.0000000000000D+00
   253  2.5200000000000D+00  0.0000000000000D+00  0.0000000000000D+00
   254  2.5300000000000D+00  0.0000000000000D+00  0.0000000000000D+00
   255  2.5400000000000D+00  0.0000000000000D+00  0.0000000000000D+00
   256  2.5500000000000D+00  0.0000000000000D+00  0.0000000000000D+00
   257  2.5600000000000D+00  0.0000000000000D+00  0.0000000000000D+00
   258  2.5700000000000D+00  0.0000000000000D+00  0.0000000000000D+00
   259  2.5800000000000D+00  0.0000000000000D+00  0.0000000000000D+00
   260  2.5900000000000D+00  0.0000000000000D+00  0.0000000000000D+00
   261  2.6000000000000D+00  0.0000000000000D+00  0.0000000000000D+00
   262  2.6100000000000D+00  0.0000000000000D+00  0.0000000000000D+00
   263  2.6200000000000D+00  0.0000000000000D+00  0.0000000000000D+00
   264  2.6300000000000D+00  0.0000000000000D+00  0.0000000000000D+00
   265  2.6400000000000D+00  0.0000000000000D+00  0.0000000000000D+00
   266  2.6500000000000D+00  0.0000000000000D+00  0.0000000000000D+00
   267  2.6600000000000D+00  0.0000000000000D+00  0.0000000000000D+00
   268  2.6700000000000D+00  0.0000000000000D+00  0.0000000000000D+00
   269  2.6800000000000D+00  0.0000000000000D+00  0.0000000000000D+00
   270  2.6900000000000D+00  0.0000000000000D+00  0.0000000000000D+00
   271  2.7000000000000D+00  0.0000000000000D+00  0.0000000000000D+00
   272  2.7100000000000D+00  0.0000000000000D+00  0.0000000000000D+00
   273  2.7200000000000D+00  0.0000000000000D+00  0.0000000000000D+00
   274  2.7300000000000D+00  0.0000000000000D+00  0.0000000000000D+00
   275  2.7400000000000D+00  0.0000000000000D+00  0.0000000000000D+00
   276  2.7500000000000D+00  0.0000000000000D+00  0.0000000000000D+00
   277  2.7600000000000D+00  0.0000000000000D+00  0.0000000000000D+00
   278  2.7700000000000D+00  0.0000000000000D+00  0.0000000000000D+00
   279  2.7800000000000D+00  0.0000000000000D+00  0.0000000000000D+00
   280  2.7900000000000D+00  0.0000000000000D+00  0.0000000000000D+00
   281  2.8000000000000D+00  0.0000000000000D+00  0.0000000000000D+00
   282  2.8100000000000D+00  0.0000000000000D+00  0.0000000000000D+00
   283  2.8200000000000D+00  0.0000000000000D+00  0.0000000000000D+00
   284  2.8300000000000D+00  0.0000000000000D+00  0.0000000000000D+00
   285  2.8400000000000D+00  0.0000000000000D+00  0.0000000000000D+00
   286  2.8500000000000D+00  0.0000000000000D+00  0.0000000000000D+00
   287  2.8600000000000D+00  0.0000000000000D+00  0.0000000000000D+00
   288  2.8700000000000D+00  0.0000000000000D+00  0.0000000000000D+00
   289  2.8800000000000D+00  0.0000000000000D+00  0.0000000000000D+00
   290  2.8900000000000D+00  0.0000000000000D+00  0.0000000000000D+00
   291  2.9000000000000D+00  0.0000000000000D+00  0.0000000000000D+00
   292  2.9100000000000D+00  0.0000000000000D+00  0.0000000000000D+00
   293  2.9200000000000D+00  0.0000000000000D+00  0.0000000000000D+00
   294  2.9300000000000D+00  0.0000000000000D+00  0.0000000000000D+00
   295  2.9400000000000D+00  0.0000000000000D+00  0.0000000000000D+00
   296  2.9500000000000D+00  0.0000000000000D+00  0.0000000000000D+00
   297  2.9600000000000D+00  0.0000000000000D+00  0.0000000000000D+00
   298  2.9700000000000D+00  0.0000000000000D+00  0.0000000000000D+00
   299  2.9800000000000D+00  0.0000000000000D+00  0.0000000000000D+00
   300  2.9900000000000D+00  0.0000000000000D+00  0.0000000000000D+00
   301  3.0000000000000D+00  0.0000000000000D+00  0.0000000000000D+00
   302  3.0100000000000D+00  0.0000000000000D+00  0.0000000000000D+00
   303  3.0200000000000D+00  0.0000000000000D+00  0.0000000000000D+00
   304  3.0300000000000D+00  0.0000000000000D+00  0.0000000000000D+00
   305  3.0400000000000D+00  0.0000000000000D+00  0.0000000000000D+00
   306  3.0500000000000D+00  0.0000000000000D+00  0.0000000000000D+00
   307  3.0600000000000D+00  0.0000000000000D+00  0.0000000000000D+00
   308  3.0700000000000D+00  0.0000000000000D+00  0.0000000000000D+00
   309  3.0800000000000D+00  0.0000000000000D+00  0.0000000000000D+00
   310  3.0900000000000D+00  0.0000000000000D+00  0.0000000000000D+00
   311  3.1000000000000D+00  0.0000000000000D+00  0.0000000000000D+00
   312  3.1100000000000D+00  0.0000000000000D+00  0.0000000000000D+00
   313  3.1200000000000D+00  0.0000000000000D+00  0.0000000000000D+00
   314  3.1300000000000D+00  0.0000000000000D+00  0.0000000000000D+00
   315  3.1400000000000D+00  0.0000000000000D+00  0.0000000000000D+00
   316  3.1500000000000D+00  0.0000000000000D+00  0.0000000000000D+00
   317  3.1600000000000D+00  0.0000000000000D+00  0.0000000000000D+00
   318  3.1700000000000D+00  0.0000000000000D+00  0.0000000000000D+00
   319  3.1800000000000D+00  0.0000000000000D+00  0.0000000000000D+00
   320  3.1900000000000D+00  0.0000000000000D+00  0.0000000000000D+00
   321  3.2000000000000D+00  0.0000000000000D+00  0.0000000000000D+00
   322  3.2100000000000D+00  0.0000000000000D+00  0.0000000000000D+00
   323  3.2200000000000D+00  0.0000000000000D+00  0.0000000000000D+00
   324  3.2300000000000D+00  0.0000000000000D+00  0.0000000000000D+00
   325  3.2400000000000D+00  0.0000000000000D+00  0.0000000000000D+00
   326  3.2500000000000D+00  0.0000000000000D+00  0.0000000000000D+00
   327  3.2600000000000D+00  0.0000000000000D+00  0.0000000000000D+00
   328  3.2700000000000D+00  0.0000000000000D+00  0.0000000000000D+00
   329  3.2800000000000D+00  0.0000000000000D+00  0.0000000000000D+00
   330  3.2900000000000D+00  0.0000000000000D+00  0.0000000000000D+00
   331  3.3000000000000D+00  0.0000000000000D+00  0.0000000000000D+00
   332  3.3100000000000D+00  0.0000000000000D+00  0.0000000000000D+00
   333  3.3200000000000D+00  0.0000000000000D+00  0.0000000000000D+00
   334  3.3300000000000D+00  0.0000000000000D+00  0.0000000000000D+00
   335  3.3400000000000D+00  0.0000000000000D+00  0.0000000000000D+00
   336  3.3500000000000D+00  0.0000000000000D+00  0.0000000000000D+00
   337  3.3600000000000D+00  0.0000000000000D+00  0.0000000000000D+00
   338  3.3700000000000D+00  0.0000000000000D+00  0.0000000000000D+00
   339  3.3800000000000D+00  0.0000000000000D+00  0.0000000000000D+00
   340  3.3900000000000D+00  0.0000000000000D+00  0.0000000000000D+00
   341  3.4000000000000D+00  0.0000000000000D+00  0.0000000000000D+00
   342  3.4100000000000D+00  0.0000000000000D+00  0.0000000000000D+00
   343  3.4200000000000D+00  0.0000000000000D+00  0.0000000000000D+00
   344  3.4300000000000D+00  0.0000000000000D+00  0.0000000000000D+00
   345  3.4400000000000D+00  0.0000000000000D+00  0.0000000000000D+00
   346  3.4500000000000D+00  0.0000000000000D+00  0.0000000000000D+00
   347  3.4600000000000D+00  0.0000000000000D+00  0.0000000000000D+00
   348  3.4700000000000D+00  0.0000000000000D+00  0.0000000000000D+00
   349  3.4800000000000D+00  0.0000000000000D+00  0.0000000000000D+00
   350  3.4900000000000D+00  0.0000000000000D+00  0.0000000000000D+00
   351  3.5000000000000D+00  0.0000000000000D+00  0.0000000000000D+00
   352  3.5100000000000D+00  0.0000000000000D+00  0.0000000000000D+00
   353  3.5200000000000D+00  0.0000000000000D+00  0.0000000000000D+00
   354  3.5300000000000D+00  0.0000000000000D+00  0.0000000000000D+00
   355  3.5400000000000D+00  0.0000000000000D+00  0.0000000000000D+00
   356  3.5500000000000D+00  0.0000000000000D+00  0.0000000000000D+00
   357  3.5600000000000D+00  0.0000000000000D+00  0.0000000000000D+00
   358  3.5700000000000D+00  0.0000000000000D+00  0.0000000000000D+00
   359  3.5800000000000D+00  0.0000000000000D+00  0.0000000000000D+00
   360  3.5900000000000D+00  0.0000000000000D+00  0.0000000000000D+00
   361  3.6000000000000D+00  0.0000000000000D+00  0.0000000000000D+00
   362  3.6100000000000D+00  0.0000000000000D+00  0.0000000000000D+00
   363  3.6200000000000D+00  0.0000000000000D+00  0.0000000000000D+00
   364  3.6300000000000D+00  0.0000000000000D+00  0.0000000000000D+00
   365  3.6400000000000D+00  0.0000000000000D+00  0.0000000000000D+00
   366  3.6500000000000D+00  0.0000000000000D+00  0.0000000000000D+00
   367  3.6600000000000D+00  0.0000000000000D+00  0.0000000000000D+00
   368  3.6700000000000D+00  0.0000000000000D+00  0.0000000000000D+00
   369  3.6800000000000D+00  0.0000000000000D+00  0.0000000000000D+00
   370  3.6900000000000D+00  0.0000000000000D+00  0.0000000000000D+00
   371  3.7000000000000D+00  0.0000000000000D+00  0.0000000000000D+00
   372  3.7100000000000D+00  0.0000000000000D+00  0.0000000000000D+00
   373  3.7200000000000D+00  0.0000000000000D+00  0.0000000000000D+00
   374  3.7300000000000D+00  0.0000000000000D+00  0.0000000000000D+00
   375  3.7400000000000D+00  0.0000000000000D+00  0.0000000000000D+00
   376  3.7500000000000D+00  0.0000000000000D+00  0.0000000000000D+00
   377  3.7600000000000D+00  0.0000000000000D+00  0.0000000000000D+00
   378  3.7700000000000D+00  0.0000000000000D+00  0.0000000000000D+00
   379  3.7800000000000D+00  0.0000000000000D+00  0.0000000000000D+00
   380  3.7900000000000D+00  0.0000000000000D+00  0.0000000000000D+00
   381  3.8000000000000D+00  0.0000000000000D+00  0.0000000000000D+00
   382  3.8100000000000D+00  0.0000000000000D+00  0.0000000000000D+00
   383  3.8200000000000D+00  0.0000000000000D+00  0.0000000000000D+00
   384  3.8300000000000D+00  0.0000000000000D+00  0.0000000000000D+00
   385  3.8400000000000D+00  0.0000000000000D+00  0.0000000000000D+00
   386  3.8500000000000D+00  0.0000000000000D+00  0.0000000000000D+00
   387  3.8600000000000D+00  0.0000000000000D+00  0.0000000000000D+00
   388  3.8700000000000D+00  0.0000000000000D+00  0.0000000000000D+00
   389  3.8800000000000D+00  0.0000000000000D+00  0.0000000000000D+00
   390  3.8900000000000D+00  0.0000000000000D+00  0.0000000000000D+00
   391  3.9000000000000D+00  0.0000000000000D+00  0.0000000000000D+00
   392  3.9100000000000D+00  0.0000000000000D+00  0.0000000000000D+00
   393  3.9200000000000D+00  0.0000000000000D+00  0.0000000000000D+00
   394  3.9300000000000D+00  0.0000000000000D+00  0.0000000000000D+00
   395  3.9400000000000D+00  0.0000000000000D+00  0.0000000000000D+00
   396  3.9500000000000D+00  0.0000000000000D+00  0.0000000000000D+00
   397  3.9600000000000D+00  0.0000000000000D+00  0.0000000000000D+00
   398  3.9700000000000D+00  0.0000000000000D+00  0.0000000000000D+00
   399  3.9800000000000D+00  0.0000000000000D+00  0.0000000000000D+00
   400  3.9900000000000D+00  0.0000000000000D+00  0.0000000000000D+00
   401  4.0000000000000D+00  0.0000000000000D+00  0.0000000000000D+00
   402  4.0100000000000D+00  0.0000000000000D+00  0.0000000000000D+00
   403  4.0200000000000D+00  0.0000000000000D+00  0.0000000000000D+00
   404  4.0300000000000D+00  0.0000000000000D+00  0.0000000000000D+00
   405  4.0400000000000D+00  0.0000000000000D+00  0.0000000000000D+00
   406  4.0500000000000D+00  0.0000000000000D+00  0.0000000000000D+00
   407  4.0600000000000D+00  0.0000000000000D+00  0.0000000000000D+00
   408  4.0700000000000D+00  0.0000000000000D+00  0.0000000000000D+00
   409  4.0800000000000D+00  0.0000000000000D+00  0.0000000000000D+00
   410  4.0900000000000D+00  0.0000000000000D+00  0.0000000000000D+00
   411  4.1000000000000D+00  0.0000000000000D+00  0.0000000000000D+00
   412  4.1100000000000D+00  0.0000000000000D+00  0.0000000000000D+00
   413  4.1200000000000D+00  0.0000000000000D+00  0.0000000000000D+00
   414  4.1300000000000D+00  0.0000000000000D+00  0.0000000000000D+00
   415  4.1400000000000D+00  0.0000000000000D+00  0.0000000000000D+00
   416  4.1500000000000D+00  0.0000000000000D+00  0.0000000000000D+00
   417  4.1600000000000D+00  0.0000000000000D+00  0.0000000000000D+00
   418  4.1700000000000D+00  0.0000000000000D+00  0.0000000000000D+00
   419  4.1800000000000D+00  0.0000000000000D+00  0.0000000000000D+00
   420  4.1900000000000D+00  0.0000000000000D+00  0.0000000000000D+00
   421  4.2000000000000D+00  0.0000000000000D+00  0.0000000000000D+00
   422  4.2100000000000D+00  0.0000000000000D+00  0.0000000000000D+00