Pm    ONCVPSP-3.3.0  r_core=   1.90832   1.50328   1.75545   1.71406
     61.0000     15.0000      220408    zatom,zion,pspd
     8       2   3     4   600     0    pspcod,pspxc,lmax,lloc,mmax,r2well
  5.99000000  0.00000000  0.00000000    rchrg fchrg qchrg
     2     2     2     2     0    nproj
     1     1           extension_switch
   0                         8.2077208213917D+00  7.2080626702834D-01
     1  0.0000000000000D+00 -1.4834966588495D-11  1.2029927054513D-10
     2  1.0000000000000D-02  3.6232355570226D-02 -1.3311197362709D-02
     3  2.0000000000000D-02  7.2441628821252D-02 -2.6564355151860D-02
     4  3.0000000000000D-02  1.0860474811599D-01 -3.9701851039343D-02
     5  4.0000000000000D-02  1.4469866293384D-01 -5.2666893462062D-02
     6  5.0000000000000D-02  1.8070035381334D-01 -6.5403927720377D-02
     7  6.0000000000000D-02  2.1658684156675D-01 -7.7859031021143D-02
     8  7.0000000000000D-02  2.5233519554142D-01 -8.9980292922101D-02
     9  8.0000000000000D-02  2.8792254071749D-01 -1.0171817775462D-01
    10  9.0000000000000D-02  3.2332606345017D-01 -1.1302586575072D-01
    11  1.0000000000000D-01  3.5852301568591D-01 -1.2385956977663D-01
    12  1.1000000000000D-01  3.9349071750683D-01 -1.3417882477744D-01
    13  1.2000000000000D-01  4.2820655788510D-01 -1.4394674726515D-01
    14  1.3000000000000D-01  4.6264799355918D-01 -1.5313026243270D-01
    15  1.4000000000000D-01  4.9679254597623D-01 -1.6170029674853D-01
    16  1.5000000000000D-01  5.3061779627935D-01 -1.6963193417775D-01
    17  1.6000000000000D-01  5.6410137835455D-01 -1.7690453448466D-01
    18  1.7000000000000D-01  5.9722096998953D-01 -1.8350181239514D-01
    19  1.8000000000000D-01  6.2995428223482D-01 -1.8941187673397D-01
    20  1.9000000000000D-01  6.6227904709639D-01 -1.9462722899852D-01
    21  2.0000000000000D-01  6.9417300372797D-01 -1.9914472118470D-01
    22  2.1000000000000D-01  7.2561388332970D-01 -2.0296547303933D-01
    23  2.2000000000000D-01  7.5657939299741D-01 -2.0609474927455D-01
    24  2.3000000000000D-01  7.8704719880369D-01 -2.0854179763917D-01
    25  2.4000000000000D-01  8.1699490842632D-01 -2.1031964909827D-01
    26  2.5000000000000D-01  8.4640005367287D-01 -2.1144488172151D-01
    27  2.6000000000000D-01  8.7524007327993D-01 -2.1193735022025D-01
    28  2.7000000000000D-01  9.0349229639317D-01 -2.1181988340044D-01
    29  2.8000000000000D-01  9.3113392715765D-01 -2.1111795210997D-01
    30  2.9000000000000D-01  9.5814203086819D-01 -2.0985931055206D-01
    31  3.0000000000000D-01  9.8449352214508D-01 -2.0807361410881D-01
    32  3.1000000000000D-01  1.0101651556115D+00 -2.0579201706708D-01
    33  3.2000000000000D-01  1.0351335195556D+00 -2.0304675386206D-01
    34  3.3000000000000D-01  1.0593750330612D+00 -1.9987070764687D-01
    35  3.4000000000000D-01  1.0828659470858D+00 -1.9629697016109D-01
    36  3.5000000000000D-01  1.1055823499567D+00 -1.9235839700115D-01
    37  3.6000000000000D-01  1.1275001777372D+00 -1.8808716249266D-01
    38  3.7000000000000D-01  1.1485952298964D+00 -1.8351431842588D-01
    39  3.8000000000000D-01  1.1688431906848D+00 -1.7866936093942D-01
    40  3.9000000000000D-01  1.1882196565878D+00 -1.7357980982394D-01
    41  4.0000000000000D-01  1.2067001701861D+00 -1.6827080446566D-01
    42  4.1000000000000D-01  1.2242602607093D+00 -1.6276472055875D-01
    43  4.2000000000000D-01  1.2408754915156D+00 -1.5708081158692D-01
    44  4.3000000000000D-01  1.2565215146756D+00 -1.5123487890674D-01
    45  4.4000000000000D-01  1.2711741327760D+00 -1.4523897406099D-01
    46  4.5000000000000D-01  1.2848093679929D+00 -1.3910113670898D-01
    47  4.6000000000000D-01  1.2974035384137D+00 -1.3282517128503D-01
    48  4.7000000000000D-01  1.3089333415128D+00 -1.2641046518789D-01
    49  4.8000000000000D-01  1.3193759446099D+00 -1.1985185096353D-01
    50  4.9000000000000D-01  1.3287090820581D+00 -1.1313951457647D-01
    51  5.0000000000000D-01  1.3369111588310D+00 -1.0625895147184D-01
    52  5.1000000000000D-01  1.3439613600911D+00 -9.9190971713930D-02
    53  5.2000000000000D-01  1.3498397662449D+00 -9.1911755054219D-02
    54  5.3000000000000D-01  1.3545274729035D+00 -8.4392956332122D-02
    55  5.4000000000000D-01  1.3580067150913D+00 -7.6601861151764D-02
    56  5.5000000000000D-01  1.3602609949645D+00 -6.8501591312361D-02
    57  5.6000000000000D-01  1.3612752122306D+00 -6.0051358999851D-02
    58  5.7000000000000D-01  1.3610357963870D+00 -5.1206768282231D-02
    59  5.8000000000000D-01  1.3595308398353D+00 -4.1920161990509D-02
    60  5.9000000000000D-01  1.3567502308679D+00 -3.2141011619960D-02
    61  6.0000000000000D-01  1.3526857854750D+00 -2.1816347454727D-02
    62  6.1000000000000D-01  1.3473313768746D+00 -1.0891225708750D-02
    63  6.2000000000000D-01  1.3406830616379D+00  6.9077090971382D-04
    64  6.3000000000000D-01  1.3327392012546D+00  1.2987003155587D-02
    65  6.4000000000000D-01  1.3235005779746D+00  2.6055219994594D-02
    66  6.5000000000000D-01  1.3129705037541D+00  3.9952982690204D-02
    67  6.6000000000000D-01  1.3011549211486D+00  5.4737073018974D-02
    68  6.7000000000000D-01  1.2880624950147D+00  7.0462890600089D-02
    69  6.8000000000000D-01  1.2737046939158D+00  8.7183844470741D-02
    70  6.9000000000000D-01  1.2580958601760D+00  1.0495074413666D-01
    71  7.0000000000000D-01  1.2412532675834D+00  1.2381119537151D-01
    72  7.1000000000000D-01  1.2231971658164D+00  1.4380900602997D-01
    73  7.2000000000000D-01  1.2039508107543D+00  1.6498360707665D-01
    74  7.3000000000000D-01  1.1835404799239D+00  1.8736949391474D-01
    75  7.4000000000000D-01  1.1619954724493D+00  2.1099569292844D-01
    76  7.5000000000000D-01  1.1393480929838D+00  2.3588525792861D-01
    77  7.6000000000000D-01  1.1156336192382D+00  2.6205480091749D-01
    78  7.7000000000000D-01  1.0908902528522D+00  2.8951406126630D-01
    79  7.8000000000000D-01  1.0651590535058D+00  3.1826551703339D-01
    80  7.9000000000000D-01  1.0384838563150D+00  3.4830404174319D-01
    81  8.0000000000000D-01  1.0109111727180D+00  3.7961660950307D-01
    82  8.1000000000000D-01  9.8249007521338D-01  4.1218205086380D-01
    83  8.2000000000000D-01  9.5327206647636D-01  4.4597086132813D-01
    84  8.3000000000000D-01  9.2331093354053D-01  4.8094506389816D-01
    85  8.4000000000000D-01  8.9266258788886D-01  5.1705812652301D-01
    86  8.5000000000000D-01  8.6138489245478D-01  5.5425493477707D-01
    87  8.6000000000000D-01  8.2953747668054D-01  5.9247181956961D-01
    88  8.7000000000000D-01  7.9718154091949D-01  6.3163663917041D-01
    89  8.8000000000000D-01  7.6437965159723D-01  6.7166891433655D-01
    90  8.9000000000000D-01  7.3119552866162D-01  7.1248001485544D-01
    91  9.0000000000000D-01  6.9769382695161D-01  7.5397339538252D-01
    92  9.1000000000000D-01  6.6393991319784D-01  7.9604487805883D-01
    93  9.2000000000000D-01  6.2999964043135D-01  8.3858297904992D-01
    94  9.3000000000000D-01  5.9593912161957D-01  8.8146927586213D-01
    95  9.4000000000000D-01  5.6182450436910D-01  9.2457881206706D-01
    96  9.5000000000000D-01  5.2772174853039D-01  9.6778053591195D-01
    97  9.6000000000000D-01  4.9369640851097D-01  1.0109377692117D+00
    98  9.7000000000000D-01  4.5981342204804D-01  1.0539087029149D+00
    99  9.8000000000000D-01  4.2613690710926D-01  1.0965469158121D+00
   100  9.9000000000000D-01  3.9272996848172D-01  1.1387019130107D+00
   101  1.0000000000000D+00  3.5965451547233D-01  1.1802196810414D+00
   102  1.0100000000000D+00  3.2697109197616D-01  1.2209432567864D+00
   103  1.0200000000000D+00  2.9473871999087D-01  1.2607133077931D+00
   104  1.0300000000000D+00  2.6301475742713D-01  1.2993687220376D+00
   105  1.0400000000000D+00  2.3185477083788D-01  1.3367472057154D+00
   106  1.0500000000000D+00  2.0131242342874D-01  1.3726858882385D+00
   107  1.0600000000000D+00  1.7143937843064D-01  1.4070219342718D+00
   108  1.0700000000000D+00  1.4228521763011D-01  1.4395931633085D+00
   109  1.0800000000000D+00  1.1389737455404D-01  1.4702386779784D+00
   110  1.0900000000000D+00  8.6321081475096D-02  1.4987995030439D+00
   111  1.1000000000000D+00  5.9599329109761D-02  1.5251192376960D+00
   112  1.1100000000000D+00  3.3772837541229D-02  1.5490447244974D+00
   113  1.1200000000000D+00  8.8800366401391D-03  1.5704267388565D+00
   114  1.1300000000000D+00 -1.5042946091535D-02  1.5891207035963D+00
   115  1.1400000000000D+00 -3.7962292572174D-02  1.6049874335889D+00
   116  1.1500000000000D+00 -5.9846498671152D-02  1.6178939157752D+00
   117  1.1600000000000D+00 -8.0666378981533D-02  1.6277141300856D+00
   118  1.1700000000000D+00 -1.0039507482466D-01  1.6343299168719D+00
   119  1.1800000000000D+00 -1.1900806857856D-01  1.6376318962559D+00
   120  1.1900000000000D+00 -1.3648320746452D-01  1.6375204441779D+00
   121  1.2000000000000D+00 -1.5280073998723D-01  1.6339067297725D+00
   122  1.2100000000000D+00 -1.6794336813302D-01  1.6267138172315D+00
   123  1.2200000000000D+00 -1.8189631821816D-01  1.6158778339470D+00
   124  1.2300000000000D+00 -1.9464743313455D-01  1.6013492055674D+00
   125  1.2400000000000D+00 -2.0618728839805D-01  1.5830939563467D+00
   126  1.2500000000000D+00 -2.1650933377533D-01  1.5610950698796D+00
   127  1.2600000000000D+00 -2.2561006183095D-01  1.5353539031008D+00
   128  1.2700000000000D+00 -2.3348920424032D-01  1.5058916437234D+00
   129  1.2800000000000D+00 -2.4014995526338D-01  1.4727507944743D+00
   130  1.2900000000000D+00 -2.4559922121325D-01  1.4359966649718D+00
   131  1.3000000000000D+00 -2.4984789400607D-01  1.3957188484102D+00
   132  1.3100000000000D+00 -2.5291114415601D-01  1.3520326481955D+00
   133  1.3200000000000D+00 -2.5480872845129D-01  1.3050804191885D+00
   134  1.3300000000000D+00 -2.5556530585631D-01  1.2550327805641D+00
   135  1.3400000000000D+00 -2.5521075092969D-01  1.2020896392526D+00
   136  1.3500000000000D+00 -2.5378045565140D-01  1.1464809696998D+00
   137  1.3600000000000D+00 -2.5131560565142D-01  1.0884672747129D+00
   138  1.3700000000000D+00 -2.4786341217734D-01  1.0283396329928D+00
   139  1.3800000000000D+00 -2.4347728590418D-01  9.6641925854837D-01
   140  1.3900000000000D+00 -2.3821692503167D-01  9.0305644042542D-01
   141  1.4000000000000D+00 -2.3214829420594D-01  8.3862874837038D-01
   142  1.4100000000000D+00 -2.2534346759091D-01  7.7353837642968D-01
   143  1.4200000000000D+00 -2.1788029419501D-01  7.0820843417343D-01
   144  1.4300000000000D+00 -2.0984185892323D-01  6.4307805815261D-01
   145  1.4400000000000D+00 -2.0131568600044D-01  5.7859610624046D-01
   146  1.4500000000000D+00 -1.9239264098894D-01  5.1521323686982D-01
   147  1.4600000000000D+00 -1.8316546604648D-01  4.5337203908111D-01
   148  1.4700000000000D+00 -1.7372693873676D-01  3.9349536500975D-01
   149  1.4800000000000D+00 -1.6416749751459D-01  3.3597177849676D-01
   150  1.4900000000000D+00 -1.5457289843348D-01  2.8114243234281D-01
   151  1.5000000000000D+00 -1.4501865998459D-01  2.2926704477728D-01
   152  1.5100000000000D+00 -1.3556815390405D-01  1.8051648970311D-01
   153  1.5200000000000D+00 -1.2627363312512D-01  1.3498870165361D-01
   154  1.5300000000000D+00 -1.1717867530513D-01  9.2729738834815D-02
   155  1.5400000000000D+00 -1.0832385893381D-01  5.3775428612399D-02
   156  1.5500000000000D+00 -9.9745895204022D-02  1.8146244118662D-02
   157  1.5600000000000D+00 -9.1475042568599D-02 -1.4170176472728D-02
   158  1.5700000000000D+00 -8.3539616616801D-02 -4.3189448105539D-02
   159  1.5800000000000D+00 -7.5968981749300D-02 -6.8911632268101D-02
   160  1.5900000000000D+00 -6.8784606811559D-02 -9.1378024868485D-02
   161  1.6000000000000D+00 -6.1996633989090D-02 -1.1069293476983D-01
   162  1.6100000000000D+00 -5.5612541953916D-02 -1.2696761246043D-01
   163  1.6200000000000D+00 -4.9639139710533D-02 -1.4030739629650D-01
   164  1.6300000000000D+00 -4.4079424153247D-02 -1.5083266600431D-01
   165  1.6400000000000D+00 -3.8932641579309D-02 -1.5867873130858D-01
   166  1.6500000000000D+00 -3.4194727785370D-02 -1.6399299287502D-01
   167  1.6600000000000D+00 -2.9858357329063D-02 -1.6693491446910D-01
   168  1.6700000000000D+00 -2.5913304329565D-02 -1.6767405369360D-01
   169  1.6800000000000D+00 -2.2346705319738D-02 -1.6638871799465D-01
   170  1.6900000000000D+00 -1.9143317203644D-02 -1.6326469622885D-01
   171  1.7000000000000D+00 -1.6285820695921D-02 -1.5849373115634D-01
   172  1.7100000000000D+00 -1.3755126985111D-02 -1.5227199803252D-01
   173  1.7200000000000D+00 -1.1530692539278D-02 -1.4479855345933D-01
   174  1.7300000000000D+00 -9.5908394727103D-03 -1.3627376616410D-01
   175  1.7400000000000D+00 -7.9130787634451D-03 -1.2689774199966D-01
   176  1.7500000000000D+00 -6.4744339163344D-03 -1.1686875403473D-01
   177  1.7600000000000D+00 -5.2517621704420D-03 -1.0638169086973D-01
   178  1.7700000000000D+00 -4.2220709636120D-03 -9.5626533515202D-02
   179  1.7800000000000D+00 -3.3628268682269D-03 -8.4786873428933D-02
   180  1.7900000000000D+00 -2.6522545661317D-03 -7.4038482713685D-02
   181  1.8000000000000D+00 -2.0696237376218D-03 -6.3547946048994D-02
   182  1.8100000000000D+00 -1.5955208016225D-03 -5.3471368224589D-02
   183  1.8200000000000D+00 -1.2121047761092D-03 -4.3953160516208D-02
   184  1.8300000000000D+00 -9.0334285307874D-04 -3.5124925873733D-02
   185  1.8400000000000D+00 -6.5522724065569D-04 -2.7104435780728D-02
   186  1.8500000000000D+00 -4.5608486980180D-04 -2.0000942342026D-02
   187  1.8600000000000D+00 -2.9622637107387D-04 -1.3886864338929D-02
   188  1.8700000000000D+00 -1.6879602130169D-04 -8.8090958977648D-03
   189  1.8800000000000D+00 -6.9862035013363D-05 -4.8875581215066D-03
   190  1.8900000000000D+00  2.7431700230060D-06 -2.2352765231700D-03
   191  1.9000000000000D+00  4.6735576591966D-05 -7.5759398615244D-04
   192  1.9100000000000D+00  5.6234850972489D-05 -1.1765848550764D-04
   193  1.9200000000000D+00  3.2954048732319D-05  4.9528167919319D-05
   194  1.9300000000000D+00  3.0366372425087D-06  8.6356758689569D-06
   195  1.9400000000000D+00 -7.4269411871202D-06 -2.6533974756791D-05
   196  1.9500000000000D+00 -3.5154295089964D-06 -1.4459656139775D-05
   197  1.9600000000000D+00  1.2356261335704D-06  2.9647908145503D-06
   198  1.9700000000000D+00  1.3258477067323D-06  3.5492020155837D-06
   199  1.9800000000000D+00 -5.3608368340452D-08  1.7162604241705D-07
   200  1.9900000000000D+00 -1.6276536654358D-07  5.2108983293483D-07
   201  2.0000000000000D+00 -3.2063227812725D-08  1.0264973672891D-07
   202  2.0100000000000D+00  0.0000000000000D+00  0.0000000000000D+00
   203  2.0200000000000D+00  0.0000000000000D+00  0.0000000000000D+00
   204  2.0300000000000D+00  0.0000000000000D+00  0.0000000000000D+00
   205  2.0400000000000D+00  0.0000000000000D+00  0.0000000000000D+00
   206  2.0500000000000D+00  0.0000000000000D+00  0.0000000000000D+00
   207  2.0600000000000D+00  0.0000000000000D+00  0.0000000000000D+00
   208  2.0700000000000D+00  0.0000000000000D+00  0.0000000000000D+00
   209  2.0800000000000D+00  0.0000000000000D+00  0.0000000000000D+00
   210  2.0900000000000D+00  0.0000000000000D+00  0.0000000000000D+00
   211  2.1000000000000D+00  0.0000000000000D+00  0.0000000000000D+00
   212  2.1100000000000D+00  0.0000000000000D+00  0.0000000000000D+00
   213  2.1200000000000D+00  0.0000000000000D+00  0.0000000000000D+00
   214  2.1300000000000D+00  0.0000000000000D+00  0.0000000000000D+00
   215  2.1400000000000D+00  0.0000000000000D+00  0.0000000000000D+00
   216  2.1500000000000D+00  0.0000000000000D+00  0.0000000000000D+00
   217  2.1600000000000D+00  0.0000000000000D+00  0.0000000000000D+00
   218  2.1700000000000D+00  0.0000000000000D+00  0.0000000000000D+00
   219  2.1800000000000D+00  0.0000000000000D+00  0.0000000000000D+00
   220  2.1900000000000D+00  0.0000000000000D+00  0.0000000000000D+00
   221  2.2000000000000D+00  0.0000000000000D+00  0.0000000000000D+00
   222  2.2100000000000D+00  0.0000000000000D+00  0.0000000000000D+00
   223  2.2200000000000D+00  0.0000000000000D+00  0.0000000000000D+00
   224  2.2300000000000D+00  0.0000000000000D+00  0.0000000000000D+00
   225  2.2400000000000D+00  0.0000000000000D+00  0.0000000000000D+00
   226  2.2500000000000D+00  0.0000000000000D+00  0.0000000000000D+00
   227  2.2600000000000D+00  0.0000000000000D+00  0.0000000000000D+00
   228  2.2700000000000D+00  0.0000000000000D+00  0.0000000000000D+00
   229  2.2800000000000D+00  0.0000000000000D+00  0.0000000000000D+00
   230  2.2900000000000D+00  0.0000000000000D+00  0.0000000000000D+00
   231  2.3000000000000D+00  0.0000000000000D+00  0.0000000000000D+00
   232  2.3100000000000D+00  0.0000000000000D+00  0.0000000000000D+00
   233  2.3200000000000D+00  0.0000000000000D+00  0.0000000000000D+00
   234  2.3300000000000D+00  0.0000000000000D+00  0.0000000000000D+00
   235  2.3400000000000D+00  0.0000000000000D+00  0.0000000000000D+00
   236  2.3500000000000D+00  0.0000000000000D+00  0.0000000000000D+00
   237  2.3600000000000D+00  0.0000000000000D+00  0.0000000000000D+00
   238  2.3700000000000D+00  0.0000000000000D+00  0.0000000000000D+00
   239  2.3800000000000D+00  0.0000000000000D+00  0.0000000000000D+00
   240  2.3900000000000D+00  0.0000000000000D+00  0.0000000000000D+00
   241  2.4000000000000D+00  0.0000000000000D+00  0.0000000000000D+00
   242  2.4100000000000D+00  0.0000000000000D+00  0.0000000000000D+00
   243  2.4200000000000D+00  0.0000000000000D+00  0.0000000000000D+00
   244  2.4300000000000D+00  0.0000000000000D+00  0.0000000000000D+00
   245  2.4400000000000D+00  0.0000000000000D+00  0.0000000000000D+00
   246  2.4500000000000D+00  0.0000000000000D+00  0.0000000000000D+00
   247  2.4600000000000D+00  0.0000000000000D+00  0.0000000000000D+00
   248  2.4700000000000D+00  0.0000000000000D+00  0.0000000000000D+00
   249  2.4800000000000D+00  0.0000000000000D+00  0.0000000000000D+00
   250  2.4900000000000D+00  0.0000000000000D+00  0.0000000000000D+00
   251  2.5000000000000D+00  0.0000000000000D+00  0.0000000000000D+00
   252  2.5100000000000D+00  0.0000000000000D+00  0.0000000000000D+00
   253  2.5200000000000D+00  0.0000000000000D+00  0.0000000000000D+00
   254  2.5300000000000D+00  0.0000000000000D+00  0.0000000000000D+00
   255  2.5400000000000D+00  0.0000000000000D+00  0.0000000000000D+00
   256  2.5500000000000D+00  0.0000000000000D+00  0.0000000000000D+00
   257  2.5600000000000D+00  0.0000000000000D+00  0.0000000000000D+00
   258  2.5700000000000D+00  0.0000000000000D+00  0.0000000000000D+00
   259  2.5800000000000D+00  0.0000000000000D+00  0.0000000000000D+00
   260  2.5900000000000D+00  0.0000000000000D+00  0.0000000000000D+00
   261  2.6000000000000D+00  0.0000000000000D+00  0.0000000000000D+00
   262  2.6100000000000D+00  0.0000000000000D+00  0.0000000000000D+00
   263  2.6200000000000D+00  0.0000000000000D+00  0.0000000000000D+00
   264  2.6300000000000D+00  0.0000000000000D+00  0.0000000000000D+00
   265  2.6400000000000D+00  0.0000000000000D+00  0.0000000000000D+00
   266  2.6500000000000D+00  0.0000000000000D+00  0.0000000000000D+00
   267  2.6600000000000D+00  0.0000000000000D+00  0.0000000000000D+00
   268  2.6700000000000D+00  0.0000000000000D+00  0.0000000000000D+00
   269  2.6800000000000D+00  0.0000000000000D+00  0.0000000000000D+00
   270  2.6900000000000D+00  0.0000000000000D+00  0.0000000000000D+00
   271  2.7000000000000D+00  0.0000000000000D+00  0.0000000000000D+00
   272  2.7100000000000D+00  0.0000000000000D+00  0.0000000000000D+00
   273  2.7200000000000D+00  0.0000000000000D+00  0.0000000000000D+00
   274  2.7300000000000D+00  0.0000000000000D+00  0.0000000000000D+00
   275  2.7400000000000D+00  0.0000000000000D+00  0.0000000000000D+00
   276  2.7500000000000D+00  0.0000000000000D+00  0.0000000000000D+00
   277  2.7600000000000D+00  0.0000000000000D+00  0.0000000000000D+00
   278  2.7700000000000D+00  0.0000000000000D+00  0.0000000000000D+00
   279  2.7800000000000D+00  0.0000000000000D+00  0.0000000000000D+00
   280  2.7900000000000D+00  0.0000000000000D+00  0.0000000000000D+00
   281  2.8000000000000D+00  0.0000000000000D+00  0.0000000000000D+00
   282  2.8100000000000D+00  0.0000000000000D+00  0.0000000000000D+00
   283  2.8200000000000D+00  0.0000000000000D+00  0.0000000000000D+00
   284  2.8300000000000D+00  0.0000000000000D+00  0.0000000000000D+00
   285  2.8400000000000D+00  0.0000000000000D+00  0.0000000000000D+00
   286  2.8500000000000D+00  0.0000000000000D+00  0.0000000000000D+00
   287  2.8600000000000D+00  0.0000000000000D+00  0.0000000000000D+00
   288  2.8700000000000D+00  0.0000000000000D+00  0.0000000000000D+00
   289  2.8800000000000D+00  0.0000000000000D+00  0.0000000000000D+00
   290  2.8900000000000D+00  0.0000000000000D+00  0.0000000000000D+00
   291  2.9000000000000D+00  0.0000000000000D+00  0.0000000000000D+00
   292  2.9100000000000D+00  0.0000000000000D+00  0.0000000000000D+00
   293  2.9200000000000D+00  0.0000000000000D+00  0.0000000000000D+00
   294  2.9300000000000D+00  0.0000000000000D+00  0.0000000000000D+00
   295  2.9400000000000D+00  0.0000000000000D+00  0.0000000000000D+00
   296  2.9500000000000D+00  0.0000000000000D+00  0.0000000000000D+00
   297  2.9600000000000D+00  0.0000000000000D+00  0.0000000000000D+00
   298  2.9700000000000D+00  0.0000000000000D+00  0.0000000000000D+00
   299  2.9800000000000D+00  0.0000000000000D+00  0.0000000000000D+00
   300  2.9900000000000D+00  0.0000000000000D+00  0.0000000000000D+00
   301  3.0000000000000D+00  0.0000000000000D+00  0.0000000000000D+00
   302  3.0100000000000D+00  0.0000000000000D+00  0.0000000000000D+00
   303  3.0200000000000D+00  0.0000000000000D+00  0.0000000000000D+00
   304  3.0300000000000D+00  0.0000000000000D+00  0.0000000000000D+00
   305  3.0400000000000D+00  0.0000000000000D+00  0.0000000000000D+00
   306  3.0500000000000D+00  0.0000000000000D+00  0.0000000000000D+00
   307  3.0600000000000D+00  0.0000000000000D+00  0.0000000000000D+00
   308  3.0700000000000D+00  0.0000000000000D+00  0.0000000000000D+00
   309  3.0800000000000D+00  0.0000000000000D+00  0.0000000000000D+00
   310  3.0900000000000D+00  0.0000000000000D+00  0.0000000000000D+00
   311  3.1000000000000D+00  0.0000000000000D+00  0.0000000000000D+00
   312  3.1100000000000D+00  0.0000000000000D+00  0.0000000000000D+00
   313  3.1200000000000D+00  0.0000000000000D+00  0.0000000000000D+00
   314  3.1300000000000D+00  0.0000000000000D+00  0.0000000000000D+00
   315  3.1400000000000D+00  0.0000000000000D+00  0.0000000000000D+00
   316  3.1500000000000D+00  0.0000000000000D+00  0.0000000000000D+00
   317  3.1600000000000D+00  0.0000000000000D+00  0.0000000000000D+00
   318  3.1700000000000D+00  0.0000000000000D+00  0.0000000000000D+00
   319  3.1800000000000D+00  0.0000000000000D+00  0.0000000000000D+00
   320  3.1900000000000D+00  0.0000000000000D+00  0.0000000000000D+00
   321  3.2000000000000D+00  0.0000000000000D+00  0.0000000000000D+00
   322  3.2100000000000D+00  0.0000000000000D+00  0.0000000000000D+00
   323  3.2200000000000D+00  0.0000000000000D+00  0.0000000000000D+00
   324  3.2300000000000D+00  0.0000000000000D+00  0.0000000000000D+00
   325  3.2400000000000D+00  0.0000000000000D+00  0.0000000000000D+00
   326  3.2500000000000D+00  0.0000000000000D+00  0.0000000000000D+00
   327  3.2600000000000D+00  0.0000000000000D+00  0.0000000000000D+00
   328  3.2700000000000D+00  0.0000000000000D+00  0.0000000000000D+00
   329  3.2800000000000D+00  0.0000000000000D+00  0.0000000000000D+00
   330  3.2900000000000D+00  0.0000000000000D+00  0.0000000000000D+00
   331  3.3000000000000D+00  0.0000000000000D+00  0.0000000000000D+00
   332  3.3100000000000D+00  0.0000000000000D+00  0.0000000000000D+00
   333  3.3200000000000D+00  0.0000000000000D+00  0.0000000000000D+00
   334  3.3300000000000D+00  0.0000000000000D+00  0.0000000000000D+00
   335  3.3400000000000D+00  0.0000000000000D+00  0.0000000000000D+00
   336  3.3500000000000D+00  0.0000000000000D+00  0.0000000000000D+00
   337  3.3600000000000D+00  0.0000000000000D+00  0.0000000000000D+00
   338  3.3700000000000D+00  0.0000000000000D+00  0.0000000000000D+00
   339  3.3800000000000D+00  0.0000000000000D+00  0.0000000000000D+00
   340  3.3900000000000D+00  0.0000000000000D+00  0.0000000000000D+00
   341  3.4000000000000D+00  0.0000000000000D+00  0.0000000000000D+00
   342  3.4100000000000D+00  0.0000000000000D+00  0.0000000000000D+00
   343  3.4200000000000D+00  0.0000000000000D+00  0.0000000000000D+00
   344  3.4300000000000D+00  0.0000000000000D+00  0.0000000000000D+00
   345  3.4400000000000D+00  0.0000000000000D+00  0.0000000000000D+00
   346  3.4500000000000D+00  0.0000000000000D+00  0.0000000000000D+00
   347  3.4600000000000D+00  0.0000000000000D+00  0.0000000000000D+00
   348  3.4700000000000D+00  0.0000000000000D+00  0.0000000000000D+00
   349  3.4800000000000D+00  0.0000000000000D+00  0.0000000000000D+00
   350  3.4900000000000D+00  0.0000000000000D+00  0.0000000000000D+00
   351  3.5000000000000D+00  0.0000000000000D+00  0.0000000000000D+00
   352  3.5100000000000D+00  0.0000000000000D+00  0.0000000000000D+00
   353  3.5200000000000D+00  0.0000000000000D+00  0.0000000000000D+00
   354  3.5300000000000D+00  0.0000000000000D+00  0.0000000000000D+00
   355  3.5400000000000D+00  0.0000000000000D+00  0.0000000000000D+00
   356  3.5500000000000D+00  0.0000000000000D+00  0.0000000000000D+00
   357  3.5600000000000D+00  0.0000000000000D+00  0.0000000000000D+00
   358  3.5700000000000D+00  0.0000000000000D+00  0.0000000000000D+00
   359  3.5800000000000D+00  0.0000000000000D+00  0.0000000000000D+00
   360  3.5900000000000D+00  0.0000000000000D+00  0.0000000000000D+00
   361  3.6000000000000D+00  0.0000000000000D+00  0.0000000000000D+00
   362  3.6100000000000D+00  0.0000000000000D+00  0.0000000000000D+00
   363  3.6200000000000D+00  0.0000000000000D+00  0.0000000000000D+00
   364  3.6300000000000D+00  0.0000000000000D+00  0.0000000000000D+00
   365  3.6400000000000D+00  0.0000000000000D+00  0.0000000000000D+00
   366  3.6500000000000D+00  0.0000000000000D+00  0.0000000000000D+00
   367  3.6600000000000D+00  0.0000000000000D+00  0.0000000000000D+00
   368  3.6700000000000D+00  0.0000000000000D+00  0.0000000000000D+00
   369  3.6800000000000D+00  0.0000000000000D+00  0.0000000000000D+00
   370  3.6900000000000D+00  0.0000000000000D+00  0.0000000000000D+00
   371  3.7000000000000D+00  0.0000000000000D+00  0.0000000000000D+00
   372  3.7100000000000D+00  0.0000000000000D+00  0.0000000000000D+00
   373  3.7200000000000D+00  0.0000000000000D+00  0.0000000000000D+00
   374  3.7300000000000D+00  0.0000000000000D+00  0.0000000000000D+00
   375  3.7400000000000D+00  0.0000000000000D+00  0.0000000000000D+00
   376  3.7500000000000D+00  0.0000000000000D+00  0.0000000000000D+00
   377  3.7600000000000D+00  0.0000000000000D+00  0.0000000000000D+00
   378  3.7700000000000D+00  0.0000000000000D+00  0.0000000000000D+00
   379  3.7800000000000D+00  0.0000000000000D+00  0.0000000000000D+00
   380  3.7900000000000D+00  0.0000000000000D+00  0.0000000000000D+00
   381  3.8000000000000D+00  0.0000000000000D+00  0.0000000000000D+00
   382  3.8100000000000D+00  0.0000000000000D+00  0.0000000000000D+00
   383  3.8200000000000D+00  0.0000000000000D+00  0.0000000000000D+00
   384  3.8300000000000D+00  0.0000000000000D+00  0.0000000000000D+00
   385  3.8400000000000D+00  0.0000000000000D+00  0.0000000000000D+00
   386  3.8500000000000D+00  0.0000000000000D+00  0.0000000000000D+00
   387  3.8600000000000D+00  0.0000000000000D+00  0.0000000000000D+00
   388  3.8700000000000D+00  0.0000000000000D+00  0.0000000000000D+00
   389  3.8800000000000D+00  0.0000000000000D+00  0.0000000000000D+00
   390  3.8900000000000D+00  0.0000000000000D+00  0.0000000000000D+00
   391  3.9000000000000D+00  0.0000000000000D+00  0.0000000000000D+00
   392  3.9100000000000D+00  0.0000000000000D+00  0.0000000000000D+00
   393  3.9200000000000D+00  0.0000000000000D+00  0.0000000000000D+00
   394  3.9300000000000D+00  0.0000000000000D+00  0.0000000000000D+00
   395  3.9400000000000D+00  0.0000000000000D+00  0.0000000000000D+00
   396  3.9500000000000D+00  0.0000000000000D+00  0.0000000000000D+00
   397  3.9600000000000D+00  0.0000000000000D+00  0.0000000000000D+00
   398  3.9700000000000D+00  0.0000000000000D+00  0.0000000000000D+00
   399  3.9800000000000D+00  0.0000000000000D+00  0.0000000000000D+00
   400  3.9900000000000D+00  0.0000000000000D+00  0.0000000000000D+00
   401  4.0000000000000D+00  0.0000000000000D+00  0.0000000000000D+00
   402  4.0100000000000D+00  0.0000000000000D+00  0.0000000000000D+00
   403  4.0200000000000D+00  0.0000000000000D+00  0.0000000000000D+00
   404  4.0300000000000D+00  0.0000000000000D+00  0.0000000000000D+00
   405  4.0400000000000D+00  0.0000000000000D+00  0.0000000000000D+00
   406  4.0500000000000D+00  0.0000000000000D+00  0.0000000000000D+00
   407  4.0600000000000D+00  0.0000000000000D+00  0.0000000000000D+00
   408  4.0700000000000D+00  0.0000000000000D+00  0.0000000000000D+00
   409  4.0800000000000D+00  0.0000000000000D+00  0.0000000000000D+00
   410  4.0900000000000D+00  0.0000000000000D+00  0.0000000000000D+00
   411  4.1000000000000D+00  0.0000000000000D+00  0.0000000000000D+00
   412  4.1100000000000D+00  0.0000000000000D+00  0.0000000000000D+00
   413  4.1200000000000D+00  0.0000000000000D+00  0.0000000000000D+00
   414  4.1300000000000D+00  0.0000000000000D+00  0.0000000000000D+00
   415  4.1400000000000D+00  0.0000000000000D+00  0.0000000000000D+00
   416  4.1500000000000D+00  0.0000000000000D+00  0.0000000000000D+00
   417  4.1600000000000D+00  0.0000000000000D+00  0.0000000000000D+00
   418  4.1700000000000D+00  0.0000000000000D+00  0.0000000000000D+00
   419  4.1800000000000D+00  0.0000000000000D+00  0.0000000000000D+00
   420  4.1900000000000D+00  0.0000000000000D+00  0.0000000000000D+00
   421  4.2000000000000D+00  0.0000000000000D+00  0.0000000000000D+00
   422  4.2100000000000D+00  0.0000000000000D+00  0.0000000000000D+00