Ir    ONCVPSP-3.3.0  r_core=   1.60470   1.60470   1.51179   2.26792
     77.0000     17.0000      220408    zatom,zion,pspd
     8       2   3     4   500     0    pspcod,pspxc,lmax,lloc,mmax,r2well
  4.99000000  0.00000000  0.00000000    rchrg fchrg qchrg
     2     2     2     2     0    nproj
     1     1           extension_switch
   0                        -3.1786343849978D+01  3.3681119583836D+00
     1  0.0000000000000D+00 -4.5483850019679D-10  4.2218321893994D-10
     2  1.0000000000000D-02  7.8610148612270D-02  1.1461366022425D-02
     3  2.0000000000000D-02  1.5697064804347D-01  2.3013772113864D-02
     4  3.0000000000000D-02  2.3483308502933D-01  3.4747375859662D-02
     5  4.0000000000000D-02  3.1195150765307D-01  4.6750579235470D-02
     6  5.0000000000000D-02  3.8808362992107D-01  5.9109174087886D-02
     7  6.0000000000000D-02  4.6299200534728D-01  7.1905515254690D-02
     8  7.0000000000000D-02  5.3644515975586D-01  8.5217730036682D-02
     9  8.0000000000000D-02  6.0821867396653D-01  9.9118972310975D-02
    10  9.0000000000000D-02  6.7809620758533D-01  1.1367672905714D-01
    11  1.0000000000000D-01  7.4587045577937D-01  1.2895218645888D-01
    12  1.1000000000000D-01  8.1134403165924D-01  1.4499966205182D-01
    13  1.2000000000000D-01  8.7433026771892D-01  1.6186610862103D-01
    14  1.3000000000000D-01  9.3465393068033D-01  1.7959069471800D-01
    15  1.4000000000000D-01  9.9215184504774D-01  1.9820446577720D-01
    16  1.5000000000000D-01  1.0466734216846D+00  2.1773008887579D-01
    17  1.6000000000000D-01  1.0980810887705D+00  2.3818168320862D-01
    18  1.7000000000000D-01  1.1462506235673D+00  2.5956473735554D-01
    19  1.8000000000000D-01  1.1910713845040D+00  2.8187611341060D-01
    20  1.9000000000000D-01  1.2324464441774D+00  3.0510413703490D-01
    21  2.0000000000000D-01  1.2702926249298D+00  3.2922877149958D-01
    22  2.1000000000000D-01  1.3045404397155D+00  3.5422187281267D-01
    23  2.2000000000000D-01  1.3351339419669D+00  3.8004752208701D-01
    24  2.3000000000000D-01  1.3620304891330D+00  4.0666243041581D-01
    25  2.4000000000000D-01  1.3852004254515D+00  4.3401641068953D-01
    26  2.5000000000000D-01  1.4046266903388D+00  4.6205291002200D-01
    27  2.6000000000000D-01  1.4203043595187D+00  4.9070959576525D-01
    28  2.7000000000000D-01  1.4322401266581D+00  5.1991898748913D-01
    29  2.8000000000000D-01  1.4404517338198D+00  5.4960912679206D-01
    30  2.9000000000000D-01  1.4449673594852D+00  5.7970427639850D-01
    31  3.0000000000000D-01  1.4458249732226D+00  6.1012563969367D-01
    32  3.1000000000000D-01  1.4430716662862D+00  6.4079209164990D-01
    33  3.2000000000000D-01  1.4367629675206D+00  6.7162091201525D-01
    34  3.3000000000000D-01  1.4269621539121D+00  7.0252851166466D-01
    35  3.4000000000000D-01  1.4137395649746D+00  7.3343114315840D-01
    36  3.5000000000000D-01  1.3971719298830D+00  7.6424558680898D-01
    37  3.6000000000000D-01  1.3773417158775D+00  7.9488980392523D-01
    38  3.7000000000000D-01  1.3543365059565D+00  8.2528354937647D-01
    39  3.8000000000000D-01  1.3282484132668D+00  8.5534893619428D-01
    40  3.9000000000000D-01  1.2991735388894D+00  8.8501094560069D-01
    41  4.0000000000000D-01  1.2672114789175D+00  9.1419787660826D-01
    42  4.1000000000000D-01  1.2324648858415D+00  9.4284173017432D-01
    43  4.2000000000000D-01  1.1950390883032D+00  9.7087852379617D-01
    44  4.3000000000000D-01  1.1550417722694D+00  9.9824853339656D-01
    45  4.4000000000000D-01  1.1125827256193D+00  1.0248964603579D+00
    46  4.5000000000000D-01  1.0677736470484D+00  1.0507715226062D+00
    47  4.6000000000000D-01  1.0207280190874D+00  1.0758274697099D+00
    48  4.7000000000000D-01  9.7156104391968D-01  1.1000225230297D+00
    49  4.8000000000000D-01  9.2038963958267D-01  1.1233192430229D+00
    50  4.9000000000000D-01  8.6733249306217D-01  1.1456843268495D+00
    51  5.0000000000000D-01  8.1251016575517D-01  1.1670883404443D+00
    52  5.1000000000000D-01  7.5604524579541D-01  1.1875053901823D+00
    53  5.2000000000000D-01  6.9806254082516D-01  1.2069127401768D+00
    54  5.3000000000000D-01  6.3868930396626D-01  1.2252903820822D+00
    55  5.4000000000000D-01  5.7805548500817D-01  1.2426205650291D+00
    56  5.5000000000000D-01  5.1629399819937D-01  1.2588872939756D+00
    57  5.6000000000000D-01  4.5354099751428D-01  1.2740758053166D+00
    58  5.7000000000000D-01  3.8993614987713D-01  1.2881720290331D+00
    59  5.8000000000000D-01  3.2562289656600D-01  1.3011620469865D+00
    60  5.9000000000000D-01  2.6074869289906D-01  1.3130315571616D+00
    61  6.0000000000000D-01  1.9546521632805D-01  1.3237653537265D+00
    62  6.1000000000000D-01  1.2992853322863D-01  1.3333468327120D+00
    63  6.2000000000000D-01  6.4299214990156D-02  1.3417575329131D+00
    64  6.3000000000000D-01 -1.2576055361934D-03  1.3489767212788D+00
    65  6.4000000000000D-01 -6.6572245576872D-02  1.3549810315910D+00
    66  6.5000000000000D-01 -1.3147055957274D-01  1.3597441646368D+00
    67  6.6000000000000D-01 -1.9577410865947D-01  1.3632366573613D+00
    68  6.7000000000000D-01 -2.5930041825599D-01  1.3654257276552D+00
    69  6.8000000000000D-01 -3.2186332842580D-01  1.3662752004889D+00
    70  6.9000000000000D-01 -3.8327344048260D-01  1.3657455200697D+00
    71  7.0000000000000D-01 -4.4333866202824D-01  1.3637938515711D+00
    72  7.1000000000000D-01 -5.0186485126430D-01  1.3603742747957D+00
    73  7.2000000000000D-01 -5.5865656000190D-01  1.3554380708693D+00
    74  7.3000000000000D-01 -6.1351787335424D-01  1.3489341017726D+00
    75  7.4000000000000D-01 -6.6625334262709D-01  1.3408092811886D+00
    76  7.5000000000000D-01 -7.1666900645098D-01  1.3310091338060D+00
    77  7.6000000000000D-01 -7.6457349375099D-01  1.3194784388879D+00
    78  7.7000000000000D-01 -8.0977920072674D-01  1.3061619526058D+00
    79  7.8000000000000D-01 -8.5210353265571D-01  1.2910052023653D+00
    80  7.9000000000000D-01 -8.9137020004340D-01  1.2739553451420D+00
    81  8.0000000000000D-01 -9.2741055744584D-01  1.2549620806994D+00
    82  8.1000000000000D-01 -9.6006497220138D-01  1.2339786095149D+00
    83  8.2000000000000D-01 -9.8918420934608D-01  1.2109626242892D+00
    84  8.3000000000000D-01 -1.0146308181651D+00  1.1858773230867D+00
    85  8.4000000000000D-01 -1.0362805051658D+00  1.1586924314572D+00
    86  8.5000000000000D-01 -1.0540234777576D+00  1.1293852203364D+00
    87  8.6000000000000D-01 -1.0677657426037D+00  1.0979415061178D+00
    88  8.7000000000000D-01 -1.0774303424710D+00  1.0643566190528D+00
    89  8.8000000000000D-01 -1.0829585154639D+00  1.0286363260601D+00
    90  8.9000000000000D-01 -1.0843107607796D+00  9.9079769412699D-01
    91  9.0000000000000D-01 -1.0814677955758D+00  9.5086988076060D-01
    92  9.1000000000000D-01 -1.0744313881907D+00  9.0889483839443D-01
    93  9.2000000000000D-01 -1.0632250538014D+00  8.6492792028125D-01
    94  9.3000000000000D-01 -1.0478945996416D+00  8.1903837619413D-01
    95  9.4000000000000D-01 -1.0285085081159D+00  7.7130972721358D-01
    96  9.5000000000000D-01 -1.0051581475362D+00  7.2184000998906D-01
    97  9.6000000000000D-01 -9.7795780175073D-01  6.7074188211576D-01
    98  9.7000000000000D-01 -9.4704451164115D-01  6.1814258166712D-01
    99  9.8000000000000D-01 -9.1257772325789D-01  5.6418373540865D-01
   100  9.9000000000000D-01 -8.7473873930419D-01  5.0902101183669D-01
   101  1.0000000000000D+00 -8.3372997270810D-01  4.5282361688982D-01
   102  1.0100000000000D+00 -7.8977400308373D-01  3.9577363192256D-01
   103  1.0200000000000D+00 -7.4311243902049D-01  3.3806519534566D-01
   104  1.0300000000000D+00 -6.9400459127081D-01  2.7990353115686D-01
   105  1.0400000000000D+00 -6.4272596412083D-01  2.2150382948487D-01
   106  1.0500000000000D+00 -5.8956657415832D-01  1.6308998593058D-01
   107  1.0600000000000D+00 -5.3482910793496D-01  1.0489320846484D-01
   108  1.0700000000000D+00 -4.7882693184037D-01  4.7150502225586D-02
   109  1.0800000000000D+00 -4.2188196941408D-01 -9.8969557765409D-03
   110  1.0900000000000D+00 -3.6432246313339D-01 -6.6005538441348D-02
   111  1.1000000000000D+00 -3.0648063909768D-01 -1.2093097202816D-01
   112  1.1100000000000D+00 -2.4869029471764D-01 -1.7443020494512D-01
   113  1.1200000000000D+00 -1.9128433055363D-01 -2.2626332461898D-01
   114  1.1300000000000D+00 -1.3459224853941D-01 -2.7619550418967D-01
   115  1.1400000000000D+00 -7.8937639532044D-02 -3.2399896011862D-01
   116  1.1500000000000D+00 -2.4635683794158D-02 -3.6945490116530D-01
   117  1.1600000000000D+00  2.8009311734502D-02 -4.1235544890848D-01
   118  1.1700000000000D+00  7.8706315565320D-02 -4.5250550996419D-01
   119  1.1800000000000D+00  1.2717988944721D-01 -4.8972458006325D-01
   120  1.1900000000000D+00  1.7317239859700D-01 -5.2384846052486D-01
   121  1.2000000000000D+00  2.1644609197836D-01 -5.5473086831084D-01
   122  1.2100000000000D+00  2.5678503134267D-01 -5.8224492173533D-01
   123  1.2200000000000D+00  2.9399684841239D-01 -6.0628448443425D-01
   124  1.2300000000000D+00  3.2791431180818D-01 -6.2676535202315D-01
   125  1.2400000000000D+00  3.5839668712504D-01 -6.4362626737940D-01
   126  1.2500000000000D+00  3.8533087412448D-01 -6.5682975093939D-01
   127  1.2600000000000D+00  4.0863230880976D-01 -6.6636273557825D-01
   128  1.2700000000000D+00  4.2824562019436D-01 -6.7223699736946D-01
   129  1.2800000000000D+00  4.4414503228983D-01 -6.7448937411520D-01
   130  1.2900000000000D+00  4.5633450647152D-01 -6.7318176744657D-01
   131  1.3000000000000D+00  4.6484762206896D-01 -6.6840092658362D-01
   132  1.3100000000000D+00  4.6974719289645D-01 -6.6025801172328D-01
   133  1.3200000000000D+00  4.7112462369856D-01 -6.4888794034015D-01
   134  1.3300000000000D+00  4.6909901255972D-01 -6.3444852146480D-01
   135  1.3400000000000D+00  4.6381600438453D-01 -6.1711938218814D-01
   136  1.3500000000000D+00  4.5544640926969D-01 -5.9710069808075D-01
   137  1.3600000000000D+00  4.4418459781971D-01 -5.7461173771398D-01
   138  1.3700000000000D+00  4.3024668792926D-01 -5.4988923357080D-01
   139  1.3800000000000D+00  4.1386854399908D-01 -5.2318559716198D-01
   140  1.3900000000000D+00  3.9530360599232D-01 -4.9476699311077D-01
   141  1.4000000000000D+00  3.7482057213273D-01 -4.6491129245022D-01
   142  1.4100000000000D+00  3.5270095970361D-01 -4.3390592595280D-01
   143  1.4200000000000D+00  3.2923656734616D-01 -4.0204565739056D-01
   144  1.4300000000000D+00  3.0472686831978D-01 -3.6963030184911D-01
   145  1.4400000000000D+00  2.7947636015409D-01 -3.3696241074522D-01
   146  1.4500000000000D+00  2.5379190071810D-01 -3.0434494915631D-01
   147  1.4600000000000D+00  2.2798006064769D-01 -2.7207899121525D-01
   148  1.4700000000000D+00  2.0234451582372D-01 -2.4046145314854D-01
   149  1.4800000000000D+00  1.7718353475472D-01 -2.0978291313264D-01
   150  1.4900000000000D+00  1.5278743264619D-01 -1.8032539510673D-01
   151  1.5000000000000D+00  1.2943610664361D-01 -1.5236021878634D-01
   152  1.5100000000000D+00  1.0739830293318D-01 -1.2614748419013D-01
   153  1.5200000000000D+00  8.6927245587121D-02 -1.0193209094989D-01
   154  1.5300000000000D+00  6.8254698732327D-02 -7.9938246797075D-02
   155  1.5400000000000D+00  5.1586192880380D-02 -6.0365123357878D-02
   156  1.5500000000000D+00  3.7092581750215D-02 -4.3379648464841D-02
   157  1.5600000000000D+00  2.4914115930190D-02 -2.9119692539432D-02
   158  1.5700000000000D+00  1.5125678508445D-02 -1.7650598240492D-02
   159  1.5800000000000D+00  7.8275224017976D-03 -9.0840437655672D-03
   160  1.5900000000000D+00  3.1672769854634D-03 -3.6061059642529D-03
   161  1.6000000000000D+00  8.3779958795652D-04 -8.7624980501095D-04
   162  1.6100000000000D+00  2.9249245533551D-05  3.6155121995591D-05
   163  1.6200000000000D+00 -4.1920396794874D-05  6.6124106804232D-05
   164  1.6300000000000D+00  3.1801306240123D-05 -4.6583223701440D-05
   165  1.6400000000000D+00  1.8283359760544D-05 -2.5687379594257D-05
   166  1.6500000000000D+00 -4.4289642087261D-06  7.2781743103778D-06
   167  1.6600000000000D+00 -2.4399945486729D-06  3.8449665563573D-06
   168  1.6700000000000D+00 -8.5006832961870D-07  7.4858140185266D-07
   169  1.6800000000000D+00 -4.1115061592633D-07  3.6206466435560D-07
   170  1.6900000000000D+00  0.0000000000000D+00  0.0000000000000D+00
   171  1.7000000000000D+00  0.0000000000000D+00  0.0000000000000D+00
   172  1.7100000000000D+00  0.0000000000000D+00  0.0000000000000D+00
   173  1.7200000000000D+00  0.0000000000000D+00  0.0000000000000D+00
   174  1.7300000000000D+00  0.0000000000000D+00  0.0000000000000D+00
   175  1.7400000000000D+00  0.0000000000000D+00  0.0000000000000D+00
   176  1.7500000000000D+00  0.0000000000000D+00  0.0000000000000D+00
   177  1.7600000000000D+00  0.0000000000000D+00  0.0000000000000D+00
   178  1.7700000000000D+00  0.0000000000000D+00  0.0000000000000D+00
   179  1.7800000000000D+00  0.0000000000000D+00  0.0000000000000D+00
   180  1.7900000000000D+00  0.0000000000000D+00  0.0000000000000D+00
   181  1.8000000000000D+00  0.0000000000000D+00  0.0000000000000D+00
   182  1.8100000000000D+00  0.0000000000000D+00  0.0000000000000D+00
   183  1.8200000000000D+00  0.0000000000000D+00  0.0000000000000D+00
   184  1.8300000000000D+00  0.0000000000000D+00  0.0000000000000D+00
   185  1.8400000000000D+00  0.0000000000000D+00  0.0000000000000D+00
   186  1.8500000000000D+00  0.0000000000000D+00  0.0000000000000D+00
   187  1.8600000000000D+00  0.0000000000000D+00  0.0000000000000D+00
   188  1.8700000000000D+00  0.0000000000000D+00  0.0000000000000D+00
   189  1.8800000000000D+00  0.0000000000000D+00  0.0000000000000D+00
   190  1.8900000000000D+00  0.0000000000000D+00  0.0000000000000D+00
   191  1.9000000000000D+00  0.0000000000000D+00  0.0000000000000D+00
   192  1.9100000000000D+00  0.0000000000000D+00  0.0000000000000D+00
   193  1.9200000000000D+00  0.0000000000000D+00  0.0000000000000D+00
   194  1.9300000000000D+00  0.0000000000000D+00  0.0000000000000D+00
   195  1.9400000000000D+00  0.0000000000000D+00  0.0000000000000D+00
   196  1.9500000000000D+00  0.0000000000000D+00  0.0000000000000D+00
   197  1.9600000000000D+00  0.0000000000000D+00  0.0000000000000D+00
   198  1.9700000000000D+00  0.0000000000000D+00  0.0000000000000D+00
   199  1.9800000000000D+00  0.0000000000000D+00  0.0000000000000D+00
   200  1.9900000000000D+00  0.0000000000000D+00  0.0000000000000D+00
   201  2.0000000000000D+00  0.0000000000000D+00  0.0000000000000D+00
   202  2.0100000000000D+00  0.0000000000000D+00  0.0000000000000D+00
   203  2.0200000000000D+00  0.0000000000000D+00  0.0000000000000D+00
   204  2.0300000000000D+00  0.0000000000000D+00  0.0000000000000D+00
   205  2.0400000000000D+00  0.0000000000000D+00  0.0000000000000D+00
   206  2.0500000000000D+00  0.0000000000000D+00  0.0000000000000D+00
   207  2.0600000000000D+00  0.0000000000000D+00  0.0000000000000D+00
   208  2.0700000000000D+00  0.0000000000000D+00  0.0000000000000D+00
   209  2.0800000000000D+00  0.0000000000000D+00  0.0000000000000D+00
   210  2.0900000000000D+00  0.0000000000000D+00  0.0000000000000D+00
   211  2.1000000000000D+00  0.0000000000000D+00  0.0000000000000D+00
   212  2.1100000000000D+00  0.0000000000000D+00  0.0000000000000D+00
   213  2.1200000000000D+00  0.0000000000000D+00  0.0000000000000D+00
   214  2.1300000000000D+00  0.0000000000000D+00  0.0000000000000D+00
   215  2.1400000000000D+00  0.0000000000000D+00  0.0000000000000D+00
   216  2.1500000000000D+00  0.0000000000000D+00  0.0000000000000D+00
   217  2.1600000000000D+00  0.0000000000000D+00  0.0000000000000D+00
   218  2.1700000000000D+00  0.0000000000000D+00  0.0000000000000D+00
   219  2.1800000000000D+00  0.0000000000000D+00  0.0000000000000D+00
   220  2.1900000000000D+00  0.0000000000000D+00  0.0000000000000D+00
   221  2.2000000000000D+00  0.0000000000000D+00  0.0000000000000D+00
   222  2.2100000000000D+00  0.0000000000000D+00  0.0000000000000D+00
   223  2.2200000000000D+00  0.0000000000000D+00  0.0000000000000D+00
   224  2.2300000000000D+00  0.0000000000000D+00  0.0000000000000D+00
   225  2.2400000000000D+00  0.0000000000000D+00  0.0000000000000D+00
   226  2.2500000000000D+00  0.0000000000000D+00  0.0000000000000D+00
   227  2.2600000000000D+00  0.0000000000000D+00  0.0000000000000D+00
   228  2.2700000000000D+00  0.0000000000000D+00  0.0000000000000D+00
   229  2.2800000000000D+00  0.0000000000000D+00  0.0000000000000D+00
   230  2.2900000000000D+00  0.0000000000000D+00  0.0000000000000D+00
   231  2.3000000000000D+00  0.0000000000000D+00  0.0000000000000D+00
   232  2.3100000000000D+00  0.0000000000000D+00  0.0000000000000D+00
   233  2.3200000000000D+00  0.0000000000000D+00  0.0000000000000D+00
   234  2.3300000000000D+00  0.0000000000000D+00  0.0000000000000D+00
   235  2.3400000000000D+00  0.0000000000000D+00  0.0000000000000D+00
   236  2.3500000000000D+00  0.0000000000000D+00  0.0000000000000D+00
   237  2.3600000000000D+00  0.0000000000000D+00  0.0000000000000D+00
   238  2.3700000000000D+00  0.0000000000000D+00  0.0000000000000D+00
   239  2.3800000000000D+00  0.0000000000000D+00  0.0000000000000D+00
   240  2.3900000000000D+00  0.0000000000000D+00  0.0000000000000D+00
   241  2.4000000000000D+00  0.0000000000000D+00  0.0000000000000D+00
   242  2.4100000000000D+00  0.0000000000000D+00  0.0000000000000D+00
   243  2.4200000000000D+00  0.0000000000000D+00  0.0000000000000D+00
   244  2.4300000000000D+00  0.0000000000000D+00  0.0000000000000D+00
   245  2.4400000000000D+00  0.0000000000000D+00  0.0000000000000D+00
   246  2.4500000000000D+00  0.0000000000000D+00  0.0000000000000D+00
   247  2.4600000000000D+00  0.0000000000000D+00  0.0000000000000D+00
   248  2.4700000000000D+00  0.0000000000000D+00  0.0000000000000D+00
   249  2.4800000000000D+00  0.0000000000000D+00  0.0000000000000D+00
   250  2.4900000000000D+00  0.0000000000000D+00  0.0000000000000D+00
   251  2.5000000000000D+00  0.0000000000000D+00  0.0000000000000D+00
   252  2.5100000000000D+00  0.0000000000000D+00  0.0000000000000D+00
   253  2.5200000000000D+00  0.0000000000000D+00  0.0000000000000D+00
   254  2.5300000000000D+00  0.0000000000000D+00  0.0000000000000D+00
   255  2.5400000000000D+00  0.0000000000000D+00  0.0000000000000D+00
   256  2.5500000000000D+00  0.0000000000000D+00  0.0000000000000D+00
   257  2.5600000000000D+00  0.0000000000000D+00  0.0000000000000D+00
   258  2.5700000000000D+00  0.0000000000000D+00  0.0000000000000D+00
   259  2.5800000000000D+00  0.0000000000000D+00  0.0000000000000D+00
   260  2.5900000000000D+00  0.0000000000000D+00  0.0000000000000D+00
   261  2.6000000000000D+00  0.0000000000000D+00  0.0000000000000D+00
   262  2.6100000000000D+00  0.0000000000000D+00  0.0000000000000D+00
   263  2.6200000000000D+00  0.0000000000000D+00  0.0000000000000D+00
   264  2.6300000000000D+00  0.0000000000000D+00  0.0000000000000D+00
   265  2.6400000000000D+00  0.0000000000000D+00  0.0000000000000D+00
   266  2.6500000000000D+00  0.0000000000000D+00  0.0000000000000D+00
   267  2.6600000000000D+00  0.0000000000000D+00  0.0000000000000D+00
   268  2.6700000000000D+00  0.0000000000000D+00  0.0000000000000D+00
   269  2.6800000000000D+00  0.0000000000000D+00  0.0000000000000D+00
   270  2.6900000000000D+00  0.0000000000000D+00  0.0000000000000D+00
   271  2.7000000000000D+00  0.0000000000000D+00  0.0000000000000D+00
   272  2.7100000000000D+00  0.0000000000000D+00  0.0000000000000D+00
   273  2.7200000000000D+00  0.0000000000000D+00  0.0000000000000D+00
   274  2.7300000000000D+00  0.0000000000000D+00  0.0000000000000D+00
   275  2.7400000000000D+00  0.0000000000000D+00  0.0000000000000D+00
   276  2.7500000000000D+00  0.0000000000000D+00  0.0000000000000D+00
   277  2.7600000000000D+00  0.0000000000000D+00  0.0000000000000D+00
   278  2.7700000000000D+00  0.0000000000000D+00  0.0000000000000D+00
   279  2.7800000000000D+00  0.0000000000000D+00  0.0000000000000D+00
   280  2.7900000000000D+00  0.0000000000000D+00  0.0000000000000D+00
   281  2.8000000000000D+00  0.0000000000000D+00  0.0000000000000D+00
   282  2.8100000000000D+00  0.0000000000000D+00  0.0000000000000D+00
   283  2.8200000000000D+00  0.0000000000000D+00  0.0000000000000D+00
   284  2.8300000000000D+00  0.0000000000000D+00  0.0000000000000D+00
   285  2.8400000000000D+00  0.0000000000000D+00  0.0000000000000D+00
   286  2.8500000000000D+00  0.0000000000000D+00  0.0000000000000D+00
   287  2.8600000000000D+00  0.0000000000000D+00  0.0000000000000D+00
   288  2.8700000000000D+00  0.0000000000000D+00  0.0000000000000D+00
   289  2.8800000000000D+00  0.0000000000000D+00  0.0000000000000D+00
   290  2.8900000000000D+00  0.0000000000000D+00  0.0000000000000D+00
   291  2.9000000000000D+00  0.0000000000000D+00  0.0000000000000D+00
   292  2.9100000000000D+00  0.0000000000000D+00  0.0000000000000D+00
   293  2.9200000000000D+00  0.0000000000000D+00  0.0000000000000D+00
   294  2.9300000000000D+00  0.0000000000000D+00  0.0000000000000D+00
   295  2.9400000000000D+00  0.0000000000000D+00  0.0000000000000D+00
   296  2.9500000000000D+00  0.0000000000000D+00  0.0000000000000D+00
   297  2.9600000000000D+00  0.0000000000000D+00  0.0000000000000D+00
   298  2.9700000000000D+00  0.0000000000000D+00  0.0000000000000D+00
   299  2.9800000000000D+00  0.0000000000000D+00  0.0000000000000D+00
   300  2.9900000000000D+00  0.0000000000000D+00  0.0000000000000D+00
   301  3.0000000000000D+00  0.0000000000000D+00  0.0000000000000D+00
   302  3.0100000000000D+00  0.0000000000000D+00  0.0000000000000D+00
   303  3.0200000000000D+00  0.0000000000000D+00  0.0000000000000D+00
   304  3.0300000000000D+00  0.0000000000000D+00  0.0000000000000D+00
   305  3.0400000000000D+00  0.0000000000000D+00  0.0000000000000D+00
   306  3.0500000000000D+00  0.0000000000000D+00  0.0000000000000D+00
   307  3.0600000000000D+00  0.0000000000000D+00  0.0000000000000D+00
   308  3.0700000000000D+00  0.0000000000000D+00  0.0000000000000D+00
   309  3.0800000000000D+00  0.0000000000000D+00  0.0000000000000D+00
   310  3.0900000000000D+00  0.0000000000000D+00  0.0000000000000D+00
   311  3.1000000000000D+00  0.0000000000000D+00  0.0000000000000D+00
   312  3.1100000000000D+00  0.0000000000000D+00  0.0000000000000D+00
   313  3.1200000000000D+00  0.0000000000000D+00  0.0000000000000D+00
   314  3.1300000000000D+00  0.0000000000000D+00  0.0000000000000D+00
   315  3.1400000000000D+00  0.0000000000000D+00  0.0000000000000D+00
   316  3.1500000000000D+00  0.0000000000000D+00  0.0000000000000D+00
   317  3.1600000000000D+00  0.0000000000000D+00  0.0000000000000D+00
   318  3.1700000000000D+00  0.0000000000000D+00  0.0000000000000D+00
   319  3.1800000000000D+00  0.0000000000000D+00  0.0000000000000D+00
   320  3.1900000000000D+00  0.0000000000000D+00  0.0000000000000D+00
   321  3.2000000000000D+00  0.0000000000000D+00  0.0000000000000D+00
   322  3.2100000000000D+00  0.0000000000000D+00  0.0000000000000D+00
   323  3.2200000000000D+00  0.0000000000000D+00  0.0000000000000D+00
   324  3.2300000000000D+00  0.0000000000000D+00  0.0000000000000D+00
   325  3.2400000000000D+00  0.0000000000000D+00  0.0000000000000D+00
   326  3.2500000000000D+00  0.0000000000000D+00  0.0000000000000D+00
   327  3.2600000000000D+00  0.0000000000000D+00  0.0000000000000D+00
   328  3.2700000000000D+00  0.0000000000000D+00  0.0000000000000D+00
   329  3.2800000000000D+00  0.0000000000000D+00  0.0000000000000D+00
   330  3.2900000000000D+00  0.0000000000000D+00  0.0000000000000D+00
   331  3.3000000000000D+00  0.0000000000000D+00  0.0000000000000D+00
   332  3.3100000000000D+00  0.0000000000000D+00  0.0000000000000D+00
   333  3.3200000000000D+00  0.0000000000000D+00  0.0000000000000D+00
   334  3.3300000000000D+00  0.0000000000000D+00  0.0000000000000D+00
   335  3.3400000000000D+00  0.0000000000000D+00  0.0000000000000D+00
   336  3.3500000000000D+00  0.0000000000000D+00  0.0000000000000D+00
   337  3.3600000000000D+00  0.0000000000000D+00  0.0000000000000D+00
   338  3.3700000000000D+00  0.0000000000000D+00  0.0000000000000D+00
   339  3.3800000000000D+00  0.0000000000000D+00  0.0000000000000D+00
   340  3.3900000000000D+00  0.0000000000000D+00  0.0000000000000D+00
   341  3.4000000000000D+00  0.0000000000000D+00  0.0000000000000D+00
   342  3.4100000000000D+00  0.0000000000000D+00  0.0000000000000D+00
   343  3.4200000000000D+00  0.0000000000000D+00  0.0000000000000D+00
   344  3.4300000000000D+00  0.0000000000000D+00  0.0000000000000D+00
   345  3.4400000000000D+00  0.0000000000000D+00  0.0000000000000D+00
   346  3.4500000000000D+00  0.0000000000000D+00  0.0000000000000D+00
   347  3.4600000000000D+00  0.0000000000000D+00  0.0000000000000D+00
   348  3.4700000000000D+00  0.0000000000000D+00  0.0000000000000D+00
   349  3.4800000000000D+00  0.0000000000000D+00  0.0000000000000D+00
   350  3.4900000000000D+00  0.0000000000000D+00  0.0000000000000D+00
   351  3.5000000000000D+00  0.0000000000000D+00  0.0000000000000D+00
   352  3.5100000000000D+00  0.0000000000000D+00  0.0000000000000D+00
   353  3.5200000000000D+00  0.0000000000000D+00  0.0000000000000D+00
   354  3.5300000000000D+00  0.0000000000000D+00  0.0000000000000D+00
   355  3.5400000000000D+00  0.0000000000000D+00  0.0000000000000D+00
   356  3.5500000000000D+00  0.0000000000000D+00  0.0000000000000D+00
   357  3.5600000000000D+00  0.0000000000000D+00  0.0000000000000D+00
   358  3.5700000000000D+00  0.0000000000000D+00  0.0000000000000D+00
   359  3.5800000000000D+00  0.0000000000000D+00  0.0000000000000D+00
   360  3.5900000000000D+00  0.0000000000000D+00  0.0000000000000D+00
   361  3.6000000000000D+00  0.0000000000000D+00  0.0000000000000D+00
   362  3.6100000000000D+00  0.0000000000000D+00  0.0000000000000D+00
   363  3.6200000000000D+00  0.0000000000000D+00  0.0000000000000D+00
   364  3.6300000000000D+00  0.0000000000000D+00  0.0000000000000D+00
   365  3.6400000000000D+00  0.0000000000000D+00  0.0000000000000D+00
   366  3.6500000000000D+00  0.0000000000000D+00  0.0000000000000D+00
   367  3.6600000000000D+00  0.0000000000000D+00  0.0000000000000D+00
   368  3.6700000000000D+00  0.0000000000000D+00  0.0000000000000D+00
   369  3.6800000000000D+00  0.0000000000000D+00  0.0000000000000D+00
   370  3.6900000000000D+00  0.0000000000000D+00  0.0000000000000D+00
   371  3.7000000000000D+00  0.0000000000000D+00  0.0000000000000D+00
   372  3.7100000000000D+00  0.0000000000000D+00  0.0000000000000D+00
   373  3.7200000000000D+00  0.0000000000000D+00  0.0000000000000D+00
   374  3.7300000000000D+00  0.0000000000000D+00  0.0000000000000D+00
   375  3.7400000000000D+00  0.0000000000000D+00  0.0000000000000D+00
   376  3.7500000000000D+00  0.0000000000000D+00  0.0000000000000D+00
   377  3.7600000000000D+00  0.0000000000000D+00  0.0000000000000D+00
   378  3.7700000000000D+00  0.0000000000000D+00  0.0000000000000D+00
   379  3.7800000000000D+00  0.0000000000000D+00  0.0000000000000D+00
   380  3.7900000000000D+00  0.0000000000000D+00  0.0000000000000D+00
   381  3.8000000000000D+00  0.0000000000000D+00  0.0000000000000D+00
   382  3.8100000000000D+00  0.0000000000000D+00  0.0000000000000D+00
   383  3.8200000000000D+00  0.0000000000000D+00  0.0000000000000D+00
   384  3.8300000000000D+00  0.0000000000000D+00  0.0000000000000D+00
   385  3.8400000000000D+00  0.0000000000000D+00  0.0000000000000D+00
   386  3.8500000000000D+00  0.0000000000000D+00  0.0000000000000D+00
   387  3.8600000000000D+00  0.0000000000000D+00  0.0000000000000D+00
   388  3.8700000000000D+00  0.0000000000000D+00  0.0000000000000D+00
   389  3.8800000000000D+00  0.0000000000000D+00  0.0000000000000D+00
   390  3.8900000000000D+00  0.0000000000000D+00  0.0000000000000D+00
   391  3.9000000000000D+00  0.0000000000000D+00  0.0000000000000D+00
   392  3.9100000000000D+00  0.0000000000000D+00  0.0000000000000D+00
   393  3.9200000000000D+00  0.0000000000000D+00  0.0000000000000D+00
   394  3.9300000000000D+00  0.0000000000000D+00  0.0000000000000D+00
   395  3.9400000000000D+00  0.0000000000000D+00  0.0000000000000D+00
   396  3.9500000000000D+00  0.0000000000000D+00  0.0000000000000D+00
   397  3.9600000000000D+00  0.0000000000000D+00  0.0000000000000D+00
   398  3.9700000000000D+00  0.0000000000000D+00  0.0000000000000D+00
   399  3.9800000000000D+00  0.0000000000000D+00  0.0000000000000D+00
   400  3.9900000000000D+00  0.0000000000000D+00  0.0000000000000D+00
   401  4.0000000000000D+00  0.0000000000000D+00  0.0000000000000D+00
   402  4.0100000000000D+00  0.0000000000000D+00  0.0000000000000D+00
   403  4.0200000000000D+00  0.0000000000000D+00  0.0000000000000D+00
   404  4.0300000000000D+00  0.0000000000000D+00  0.0000000000000D+00
   405  4.0400000000000D+00  0.0000000000000D+00  0.0000000000000D+00
   406  4.0500000000000D+00  0.0000000000000D+00  0.0000000000000D+00
   407  4.0600000000000D+00  0.0000000000000D+00  0.0000000000000D+00
   408  4.0700000000000D+00  0.0000000000000D+00  0.0000000000000D+00
   409  4.0800000000000D+00  0.0000000000000D+00  0.0000000000000D+00
   410  4.0900000000000D+00  0.0000000000000D+00  0.0000000000000D+00
   411  4.1000000000000D+00  0.0000000000000D+00  0.0000000000000D+00
   412  4.1100000000000D+00  0.0000000000000D+00  0.0000000000000D+00
   413  4.1200000000000D+00  0.0000000000000D+00  0.0000000000000D+00
   414  4.1300000000000D+00  0.0000000000000D+00  0.0000000000000D+00
   415  4.1400000000000D+00  0.0000000000000D+00  0.0000000000000D+00
   416  4.1500000000000D+00  0.0000000000000D+00  0.0000000000000D+00
   417  4.1600000000000D+00  0.0000000000000D+00  0.0000000000000D+00
   418  4.1700000000000D+00  0.0000000000000D+00  0.0000000000000D+00
   419  4.1800000000000D+00  0.0000000000000D+00  0.0000000000000D+00
   420  4.1900000000000D+00  0.0000000000000D+00  0.0000000000000D+00
   421  4.2000000000000D+00  0.0000000000000D+00  0.0000000000000D+00
   422  4.2100000000000D+00  0.0000000000000D+00  0.0000000000000D+00