Se    ONCVPSP-3.3.0  r_core=   1.81943   1.50330   1.90835
     34.0000     16.0000      220408    zatom,zion,pspd
     8       2   2     4   600     0    pspcod,pspxc,lmax,lloc,mmax,r2well
  5.99000000  0.00000000  0.00000000    rchrg fchrg qchrg
     2     2     2     0     0    nproj
     1     1           extension_switch
   0                         9.0334699844972D+00  1.0483589633820D+00
     1  0.0000000000000D+00  3.6497360689225D-11 -1.0506956416023D-11
     2  1.0000000000000D-02  3.5194175699204D-02 -1.7428029234830D-02
     3  2.0000000000000D-02  7.0385186011119D-02 -3.4843290130139D-02
     4  3.0000000000000D-02  1.0556968352223D-01 -5.2232873245758D-02
     5  4.0000000000000D-02  1.4074395815526D-01 -6.9583587865137D-02
     6  5.0000000000000D-02  1.7590375929967D-01 -8.6881823666848D-02
     7  6.0000000000000D-02  2.1104412207120D-01 -1.0411341516047D-01
     8  7.0000000000000D-02  2.4615919903367D-01 -1.2126350979623D-01
     9  8.0000000000000D-02  2.8124209867998D-01 -1.3831644064719D-01
    10  9.0000000000000D-02  3.1628473192387D-01 -1.5525560454965D-01
    11  1.0000000000000D-01  3.5127766780071D-01 -1.7206334657135D-01
    12  1.1000000000000D-01  3.8620999951373D-01 -1.8872085165806D-01
    13  1.2000000000000D-01  4.2106922189326D-01 -2.0520804428728D-01
    14  1.3000000000000D-01  4.5584112125986D-01 -2.2150349693259D-01
    15  1.4000000000000D-01  4.9050967859955D-01 -2.3758434811420D-01
    16  1.5000000000000D-01  5.2505698687004D-01 -2.5342623077940D-01
    17  1.6000000000000D-01  5.5946318316220D-01 -2.6900321172164D-01
    18  1.7000000000000D-01  5.9370639634180D-01 -2.8428774270886D-01
    19  1.8000000000000D-01  6.2776271069229D-01 -2.9925062394893D-01
    20  1.9000000000000D-01  6.6160614597264D-01 -3.1386098047494D-01
    21  2.0000000000000D-01  6.9520865419361D-01 -3.2808625198285D-01
    22  2.1000000000000D-01  7.2854013330387D-01 -3.4189219660135D-01
    23  2.2000000000000D-01  7.6156845786374D-01 -3.5524290901591D-01
    24  2.3000000000000D-01  7.9425952666996D-01 -3.6810085330851D-01
    25  2.4000000000000D-01  8.2657732718092D-01 -3.8042691080950D-01
    26  2.5000000000000D-01  8.5848401647871D-01 -3.9218044318947D-01
    27  2.6000000000000D-01  8.8994001839265D-01 -4.0331937094702D-01
    28  2.7000000000000D-01  9.2090413630010D-01 -4.1380026737237D-01
    29  2.8000000000000D-01  9.5133368101426D-01 -4.2357846798805D-01
    30  2.9000000000000D-01  9.8118461306679D-01 -4.3260819538530D-01
    31  3.0000000000000D-01  1.0104116985953D+00 -4.4084269929027D-01
    32  3.1000000000000D-01  1.0389686779536D+00 -4.4823441160603D-01
    33  3.2000000000000D-01  1.0668084460758D+00 -4.5473511608676D-01
    34  3.3000000000000D-01  1.0938832435462D+00 -4.6029613220860D-01
    35  3.4000000000000D-01  1.1201448572512D+00 -4.6486851270850D-01
    36  3.5000000000000D-01  1.1455448294273D+00 -4.6840325416783D-01
    37  3.6000000000000D-01  1.1700346738578D+00 -4.7085151992337D-01
    38  3.7000000000000D-01  1.1935660979239D+00 -4.7216487449284D-01
    39  3.8000000000000D-01  1.2160912291717D+00 -4.7229552860871D-01
    40  3.9000000000000D-01  1.2375628450282D+00 -4.7119659386051D-01
    41  4.0000000000000D-01  1.2579346042724D+00 -4.6882234585517D-01
    42  4.1000000000000D-01  1.2771612788563D+00 -4.6512849471635D-01
    43  4.2000000000000D-01  1.2951989846628D+00 -4.6007246165807D-01
    44  4.3000000000000D-01  1.3120054097969D+00 -4.5361366028660D-01
    45  4.4000000000000D-01  1.3275400390148D+00 -4.4571378120755D-01
    46  4.5000000000000D-01  1.3417643729215D+00 -4.3633707844359D-01
    47  4.6000000000000D-01  1.3546421405998D+00 -4.2545065610210D-01
    48  4.7000000000000D-01  1.3661395043725D+00 -4.1302475367356D-01
    49  4.8000000000000D-01  1.3762252554495D+00 -3.9903302828941D-01
    50  4.9000000000000D-01  1.3848709992681D+00 -3.8345283222472D-01
    51  5.0000000000000D-01  1.3920513294006D+00 -3.6626548389591D-01
    52  5.1000000000000D-01  1.3977439889740D+00 -3.4745653057821D-01
    53  5.2000000000000D-01  1.4019300186255D+00 -3.2701600105154D-01
    54  5.3000000000000D-01  1.4045938901029D+00 -3.0493864637803D-01
    55  5.4000000000000D-01  1.4057236247078D+00 -2.8122416701974D-01
    56  5.5000000000000D-01  1.4053108958759D+00 -2.5587742452173D-01
    57  5.6000000000000D-01  1.4033511152867D+00 -2.2890863601327D-01
    58  5.7000000000000D-01  1.3998435019975D+00 -2.0033354982064D-01
    59  5.8000000000000D-01  1.3947911342038D+00 -1.7017360053597D-01
    60  5.9000000000000D-01  1.3882009833314D+00 -1.3845604195149D-01
    61  6.0000000000000D-01  1.3800839302789D+00 -1.0521405634395D-01
    62  6.1000000000000D-01  1.3704547637342D+00 -7.0486838682794D-02
    63  6.2000000000000D-01  1.3593321605985D+00 -3.4319654435704D-02
    64  6.3000000000000D-01  1.3467386486604D+00  3.2361302430419D-03
    65  6.4000000000000D-01  1.3327005517643D+00  4.2123047032641D-02
    66  6.5000000000000D-01  1.3172479178259D+00  8.2277553631102D-02
    67  6.6000000000000D-01  1.3004144301410D+00  1.2363009241866D-01
    68  6.7000000000000D-01  1.2822373025358D+00  1.6610518025718D-01
    69  6.8000000000000D-01  1.2627571589937D+00  2.0962152992030D-01
    70  6.9000000000000D-01  1.2420178984815D+00  2.5409220347776D-01
    71  7.0000000000000D-01  1.2200665457784D+00  2.9942479777803D-01
    72  7.1000000000000D-01  1.1969530891840D+00  3.4552166198825D-01
    73  7.2000000000000D-01  1.1727303060516D+00  3.9228014695967D-01
    74  7.3000000000000D-01  1.1474535771481D+00  4.3959288599277D-01
    75  7.4000000000000D-01  1.1211806909011D+00  4.8734810637746D-01
    76  7.5000000000000D-01  1.0939716386339D+00  5.3542997088517D-01
    77  7.6000000000000D-01  1.0658884019279D+00  5.8371894818929D-01
    78  7.7000000000000D-01  1.0369947332808D+00  6.3209221099171D-01
    79  7.8000000000000D-01  1.0073559312501D+00  6.8042406043642D-01
    80  7.9000000000000D-01  9.7703861128327D-01  7.2858637519854D-01
    81  8.0000000000000D-01  9.4611047343962D-01  7.7644908344841D-01
    82  8.1000000000000D-01  9.1464006820727D-01  8.2388065571061D-01
    83  8.2000000000000D-01  8.8269656160478D-01  8.7074861646251D-01
    84  8.3000000000000D-01  8.5034950073859D-01  9.1692007215441D-01
    85  8.4000000000000D-01  8.1766858096081D-01  9.6226225317890D-01
    86  8.5000000000000D-01  7.8472341573754D-01  1.0066430671761D+00
    87  8.6000000000000D-01  7.5158331029810D-01  1.0499316609327D+00
    88  8.7000000000000D-01  7.1831704008842D-01  1.0919989880193D+00
    89  8.8000000000000D-01  6.8499263499977D-01  1.1327183792115D+00
    90  8.9000000000000D-01  6.5167717028655D-01  1.1719661126592D+00
    91  9.0000000000000D-01  6.1843656502456D-01  1.2096219807022D+00
    92  9.1000000000000D-01  5.8533538889543D-01  1.2455698501872D+00
    93  9.2000000000000D-01  5.5243667801265D-01  1.2796982131100D+00
    94  9.3000000000000D-01  5.1980176043366D-01  1.3119007244033D+00
    95  9.4000000000000D-01  4.8749009192674D-01  1.3420767236975D+00
    96  9.5000000000000D-01  4.5555910248633D-01  1.3701317379215D+00
    97  9.6000000000000D-01  4.2406405401386D-01  1.3959779616555D+00
    98  9.7000000000000D-01  3.9305790950394D-01  1.4195347122285D+00
    99  9.8000000000000D-01  3.6259121399976D-01  1.4407288566429D+00
   100  9.9000000000000D-01  3.3271198750620D-01  1.4594952075235D+00
   101  1.0000000000000D+00  3.0346562997565D-01  1.4757768854235D+00
   102  1.0100000000000D+00  2.7489483840910D-01  1.4895256449731D+00
   103  1.0200000000000D+00  2.4703953604958D-01  1.5007021625227D+00
   104  1.0300000000000D+00  2.1993681357545D-01  1.5092762831294D+00
   105  1.0400000000000D+00  1.9362088214223D-01  1.5152272249351D+00
   106  1.0500000000000D+00  1.6812303806334D-01  1.5185437392078D+00
   107  1.0600000000000D+00  1.4347163886620D-01  1.5192242245546D+00
   108  1.0700000000000D+00  1.1969209041296D-01  1.5172767940587D+00
   109  1.0800000000000D+00  9.6806844731410D-02  1.5127192943481D+00
   110  1.0900000000000D+00  7.4835408161476D-02  1.5055792758858D+00
   111  1.1000000000000D+00  5.3794359392043D-02  1.4958939140331D+00
   112  1.1100000000000D+00  3.3697376933015D-02  1.4837098807410D+00
   113  1.1200000000000D+00  1.4555275548049D-02  1.4690831669710D+00
   114  1.1300000000000D+00 -3.6239488475089D-03  1.4520788562822D+00
   115  1.1400000000000D+00 -2.0835066328360D-02  1.4327708502829D+00
   116  1.1500000000000D+00 -3.7075552652395D-02  1.4112415469608D+00
   117  1.1600000000000D+00 -5.2345522019756D-02  1.3875814731349D+00
   118  1.1700000000000D+00 -6.6647653410099D-02  1.3618888726107D+00
   119  1.1800000000000D+00 -7.9987111002668D-02  1.3342692518667D+00
   120  1.1900000000000D+00 -9.2371459170262D-02  1.3048348853869D+00
   121  1.2000000000000D+00 -1.0381057253225D-01  1.2737042829160D+00
   122  1.2100000000000D+00 -1.1431654152432D-01  1.2410016212853D+00
   123  1.2200000000000D+00 -1.2390357392490D-01  1.2068561436043D+00
   124  1.2300000000000D+00 -1.3258789276159D-01  1.1714015287922D+00
   125  1.2400000000000D+00 -1.4038763099103D-01  1.1347752346749D+00
   126  1.2500000000000D+00 -1.4732272331559D-01  1.0971178180340D+00
   127  1.2600000000000D+00 -1.5341479548289D-01  1.0585722350973D+00
   128  1.2700000000000D+00 -1.5868705138605D-01  1.0192831261185D+00
   129  1.2800000000000D+00 -1.6316415824218D-01  9.7939608782980D-01
   130  1.2900000000000D+00 -1.6687213011680D-01  9.3905693755955D-01
   131  1.3000000000000D+00 -1.6983821003333D-01  8.9841097292765D-01
   132  1.3100000000000D+00 -1.7209075086606D-01  8.5760223104044D-01
   133  1.3200000000000D+00 -1.7365909521730D-01  8.1677275109350D-01
   134  1.3300000000000D+00 -1.7457345444451D-01  7.7606184434171D-01
   135  1.3400000000000D+00 -1.7486478697964D-01  7.3560537523695D-01
   136  1.3500000000000D+00 -1.7456467609009D-01  6.9553505760293D-01
   137  1.3600000000000D+00 -1.7370520719315D-01  6.5597776956784D-01
   138  1.3700000000000D+00 -1.7231884484344D-01  6.1705489071331D-01
   139  1.3800000000000D+00 -1.7043830950311D-01  5.7888166516634D-01
   140  1.3900000000000D+00 -1.6809645419727D-01  5.4156659367531D-01
   141  1.4000000000000D+00 -1.6532614117024D-01  5.0521085790951D-01
   142  1.4100000000000D+00 -1.6216011864027D-01  4.6990778005938D-01
   143  1.4200000000000D+00 -1.5863089779910D-01  4.3574232003024D-01
   144  1.4300000000000D+00 -1.5477063015442D-01  4.0279061330774D-01
   145  1.4400000000000D+00 -1.5061098539132D-01  3.7111955118988D-01
   146  1.4500000000000D+00 -1.4618302990593D-01  3.4078640562647D-01
   147  1.4600000000000D+00 -1.4151710535416D-01  3.1183849633396D-01
   148  1.4700000000000D+00 -1.3664271116221D-01  2.8431292050895D-01
   149  1.4800000000000D+00 -1.3158838344973D-01  2.5823630519303D-01
   150  1.4900000000000D+00 -1.2638160623493D-01  2.3362476691123D-01
   151  1.5000000000000D+00 -1.2104859900951D-01  2.1048328430165D-01
   152  1.5100000000000D+00 -1.1561431510359D-01  1.8880617745016D-01
   153  1.5200000000000D+00 -1.1010264861338D-01  1.6857873535838D-01
   154  1.5300000000000D+00 -1.0453662715523D-01  1.4977862093892D-01
   155  1.5400000000000D+00 -9.8938719889414D-02  1.3237781338212D-01
   156  1.5500000000000D+00 -9.3330815861187D-02  1.1634286479833D-01
   157  1.5600000000000D+00 -8.7734164478718D-02  1.0163494180337D-01
   158  1.5700000000000D+00 -8.2169411309881D-02  8.8210454435863D-02
   159  1.5800000000000D+00 -7.6656578933876D-02  7.6021407359961D-02
   160  1.5900000000000D+00 -7.1215063901785D-02  6.5015873973290D-02
   161  1.6000000000000D+00 -6.5863626224279D-02  5.5138458277011D-02
   162  1.6100000000000D+00 -6.0620377583137D-02  4.6330776356364D-02
   163  1.6200000000000D+00 -5.5502767548760D-02  3.8531948863522D-02
   164  1.6300000000000D+00 -5.0527567830995D-02  3.1679101523581D-02
   165  1.6400000000000D+00 -4.5710854748380D-02  2.5707870083217D-02
   166  1.6500000000000D+00 -4.1067990068290D-02  2.0552906522142D-02
   167  1.6600000000000D+00 -3.6613600409697D-02  1.6148382902956D-02
   168  1.6700000000000D+00 -3.2361555437764D-02  1.2428489754312D-02
   169  1.6800000000000D+00 -2.8324945069825D-02  9.3279252432824D-03
   170  1.6900000000000D+00 -2.4516055949402D-02  6.7823723374782D-03
   171  1.7000000000000D+00 -2.0946347451127D-02  4.7289600823985D-03
   172  1.7100000000000D+00 -1.7626427459201D-02  3.1067066447900D-03
   173  1.7200000000000D+00 -1.4566028227919D-02  1.8569402074781D-03
   174  1.7300000000000D+00 -1.1773982528099D-02  9.2369583429519D-04
   175  1.7400000000000D+00 -9.2582004155935D-03  2.5408457615597D-04
   176  1.7500000000000D+00 -7.0256467868234D-03 -2.0136674195283D-04
   177  1.7600000000000D+00 -5.0828312034037D-03 -4.8941177688754D-04
   178  1.7700000000000D+00 -3.4340071560641D-03 -6.5031541138035D-04
   179  1.7800000000000D+00 -2.0809331347963D-03 -7.1343393969975D-04
   180  1.7900000000000D+00 -1.0292724788078D-03 -7.2044156971524D-04
   181  1.8000000000000D+00 -2.8655742429092D-04 -7.4005131789725D-04
   182  1.8100000000000D+00  1.5105880665147D-04 -7.7953183201369D-04
   183  1.8200000000000D+00  2.9413931088083D-04 -6.9096943364900D-04
   184  1.8300000000000D+00  1.8873800450340D-04 -3.6711981158444D-04
   185  1.8400000000000D+00  1.8232010242395D-05 -3.3010344040062D-05
   186  1.8500000000000D+00 -4.2246209111496D-05  7.4164838551985D-05
   187  1.8600000000000D+00 -1.6159144345528D-05  2.7607951400480D-05
   188  1.8700000000000D+00  7.8899761556597D-06 -1.4685054514293D-05
   189  1.8800000000000D+00  6.0567442737879D-06 -1.1128328813346D-05
   190  1.8900000000000D+00 -5.1936903283710D-07  1.2427628234370D-06
   191  1.9000000000000D+00 -7.4056754564303D-07  1.7720536955036D-06
   192  1.9100000000000D+00  0.0000000000000D+00  0.0000000000000D+00
   193  1.9200000000000D+00  0.0000000000000D+00  0.0000000000000D+00
   194  1.9300000000000D+00  0.0000000000000D+00  0.0000000000000D+00
   195  1.9400000000000D+00  0.0000000000000D+00  0.0000000000000D+00
   196  1.9500000000000D+00  0.0000000000000D+00  0.0000000000000D+00
   197  1.9600000000000D+00  0.0000000000000D+00  0.0000000000000D+00
   198  1.9700000000000D+00  0.0000000000000D+00  0.0000000000000D+00
   199  1.9800000000000D+00  0.0000000000000D+00  0.0000000000000D+00
   200  1.9900000000000D+00  0.0000000000000D+00  0.0000000000000D+00
   201  2.0000000000000D+00  0.0000000000000D+00  0.0000000000000D+00
   202  2.0100000000000D+00  0.0000000000000D+00  0.0000000000000D+00
   203  2.0200000000000D+00  0.0000000000000D+00  0.0000000000000D+00
   204  2.0300000000000D+00  0.0000000000000D+00  0.0000000000000D+00
   205  2.0400000000000D+00  0.0000000000000D+00  0.0000000000000D+00
   206  2.0500000000000D+00  0.0000000000000D+00  0.0000000000000D+00
   207  2.0600000000000D+00  0.0000000000000D+00  0.0000000000000D+00
   208  2.0700000000000D+00  0.0000000000000D+00  0.0000000000000D+00
   209  2.0800000000000D+00  0.0000000000000D+00  0.0000000000000D+00
   210  2.0900000000000D+00  0.0000000000000D+00  0.0000000000000D+00
   211  2.1000000000000D+00  0.0000000000000D+00  0.0000000000000D+00
   212  2.1100000000000D+00  0.0000000000000D+00  0.0000000000000D+00
   213  2.1200000000000D+00  0.0000000000000D+00  0.0000000000000D+00
   214  2.1300000000000D+00  0.0000000000000D+00  0.0000000000000D+00
   215  2.1400000000000D+00  0.0000000000000D+00  0.0000000000000D+00
   216  2.1500000000000D+00  0.0000000000000D+00  0.0000000000000D+00
   217  2.1600000000000D+00  0.0000000000000D+00  0.0000000000000D+00
   218  2.1700000000000D+00  0.0000000000000D+00  0.0000000000000D+00
   219  2.1800000000000D+00  0.0000000000000D+00  0.0000000000000D+00
   220  2.1900000000000D+00  0.0000000000000D+00  0.0000000000000D+00
   221  2.2000000000000D+00  0.0000000000000D+00  0.0000000000000D+00
   222  2.2100000000000D+00  0.0000000000000D+00  0.0000000000000D+00
   223  2.2200000000000D+00  0.0000000000000D+00  0.0000000000000D+00
   224  2.2300000000000D+00  0.0000000000000D+00  0.0000000000000D+00
   225  2.2400000000000D+00  0.0000000000000D+00  0.0000000000000D+00
   226  2.2500000000000D+00  0.0000000000000D+00  0.0000000000000D+00
   227  2.2600000000000D+00  0.0000000000000D+00  0.0000000000000D+00
   228  2.2700000000000D+00  0.0000000000000D+00  0.0000000000000D+00
   229  2.2800000000000D+00  0.0000000000000D+00  0.0000000000000D+00
   230  2.2900000000000D+00  0.0000000000000D+00  0.0000000000000D+00
   231  2.3000000000000D+00  0.0000000000000D+00  0.0000000000000D+00
   232  2.3100000000000D+00  0.0000000000000D+00  0.0000000000000D+00
   233  2.3200000000000D+00  0.0000000000000D+00  0.0000000000000D+00
   234  2.3300000000000D+00  0.0000000000000D+00  0.0000000000000D+00
   235  2.3400000000000D+00  0.0000000000000D+00  0.0000000000000D+00
   236  2.3500000000000D+00  0.0000000000000D+00  0.0000000000000D+00
   237  2.3600000000000D+00  0.0000000000000D+00  0.0000000000000D+00
   238  2.3700000000000D+00  0.0000000000000D+00  0.0000000000000D+00
   239  2.3800000000000D+00  0.0000000000000D+00  0.0000000000000D+00
   240  2.3900000000000D+00  0.0000000000000D+00  0.0000000000000D+00
   241  2.4000000000000D+00  0.0000000000000D+00  0.0000000000000D+00
   242  2.4100000000000D+00  0.0000000000000D+00  0.0000000000000D+00
   243  2.4200000000000D+00  0.0000000000000D+00  0.0000000000000D+00
   244  2.4300000000000D+00  0.0000000000000D+00  0.0000000000000D+00
   245  2.4400000000000D+00  0.0000000000000D+00  0.0000000000000D+00
   246  2.4500000000000D+00  0.0000000000000D+00  0.0000000000000D+00
   247  2.4600000000000D+00  0.0000000000000D+00  0.0000000000000D+00
   248  2.4700000000000D+00  0.0000000000000D+00  0.0000000000000D+00
   249  2.4800000000000D+00  0.0000000000000D+00  0.0000000000000D+00
   250  2.4900000000000D+00  0.0000000000000D+00  0.0000000000000D+00
   251  2.5000000000000D+00  0.0000000000000D+00  0.0000000000000D+00
   252  2.5100000000000D+00  0.0000000000000D+00  0.0000000000000D+00
   253  2.5200000000000D+00  0.0000000000000D+00  0.0000000000000D+00
   254  2.5300000000000D+00  0.0000000000000D+00  0.0000000000000D+00
   255  2.5400000000000D+00  0.0000000000000D+00  0.0000000000000D+00
   256  2.5500000000000D+00  0.0000000000000D+00  0.0000000000000D+00
   257  2.5600000000000D+00  0.0000000000000D+00  0.0000000000000D+00
   258  2.5700000000000D+00  0.0000000000000D+00  0.0000000000000D+00
   259  2.5800000000000D+00  0.0000000000000D+00  0.0000000000000D+00
   260  2.5900000000000D+00  0.0000000000000D+00  0.0000000000000D+00
   261  2.6000000000000D+00  0.0000000000000D+00  0.0000000000000D+00
   262  2.6100000000000D+00  0.0000000000000D+00  0.0000000000000D+00
   263  2.6200000000000D+00  0.0000000000000D+00  0.0000000000000D+00
   264  2.6300000000000D+00  0.0000000000000D+00  0.0000000000000D+00
   265  2.6400000000000D+00  0.0000000000000D+00  0.0000000000000D+00
   266  2.6500000000000D+00  0.0000000000000D+00  0.0000000000000D+00
   267  2.6600000000000D+00  0.0000000000000D+00  0.0000000000000D+00
   268  2.6700000000000D+00  0.0000000000000D+00  0.0000000000000D+00
   269  2.6800000000000D+00  0.0000000000000D+00  0.0000000000000D+00
   270  2.6900000000000D+00  0.0000000000000D+00  0.0000000000000D+00
   271  2.7000000000000D+00  0.0000000000000D+00  0.0000000000000D+00
   272  2.7100000000000D+00  0.0000000000000D+00  0.0000000000000D+00
   273  2.7200000000000D+00  0.0000000000000D+00  0.0000000000000D+00
   274  2.7300000000000D+00  0.0000000000000D+00  0.0000000000000D+00
   275  2.7400000000000D+00  0.0000000000000D+00  0.0000000000000D+00
   276  2.7500000000000D+00  0.0000000000000D+00  0.0000000000000D+00
   277  2.7600000000000D+00  0.0000000000000D+00  0.0000000000000D+00
   278  2.7700000000000D+00  0.0000000000000D+00  0.0000000000000D+00
   279  2.7800000000000D+00  0.0000000000000D+00  0.0000000000000D+00
   280  2.7900000000000D+00  0.0000000000000D+00  0.0000000000000D+00
   281  2.8000000000000D+00  0.0000000000000D+00  0.0000000000000D+00
   282  2.8100000000000D+00  0.0000000000000D+00  0.0000000000000D+00
   283  2.8200000000000D+00  0.0000000000000D+00  0.0000000000000D+00
   284  2.8300000000000D+00  0.0000000000000D+00  0.0000000000000D+00
   285  2.8400000000000D+00  0.0000000000000D+00  0.0000000000000D+00
   286  2.8500000000000D+00  0.0000000000000D+00  0.0000000000000D+00
   287  2.8600000000000D+00  0.0000000000000D+00  0.0000000000000D+00
   288  2.8700000000000D+00  0.0000000000000D+00  0.0000000000000D+00
   289  2.8800000000000D+00  0.0000000000000D+00  0.0000000000000D+00
   290  2.8900000000000D+00  0.0000000000000D+00  0.0000000000000D+00
   291  2.9000000000000D+00  0.0000000000000D+00  0.0000000000000D+00
   292  2.9100000000000D+00  0.0000000000000D+00  0.0000000000000D+00
   293  2.9200000000000D+00  0.0000000000000D+00  0.0000000000000D+00
   294  2.9300000000000D+00  0.0000000000000D+00  0.0000000000000D+00
   295  2.9400000000000D+00  0.0000000000000D+00  0.0000000000000D+00
   296  2.9500000000000D+00  0.0000000000000D+00  0.0000000000000D+00
   297  2.9600000000000D+00  0.0000000000000D+00  0.0000000000000D+00
   298  2.9700000000000D+00  0.0000000000000D+00  0.0000000000000D+00
   299  2.9800000000000D+00  0.0000000000000D+00  0.0000000000000D+00
   300  2.9900000000000D+00  0.0000000000000D+00  0.0000000000000D+00
   301  3.0000000000000D+00  0.0000000000000D+00  0.0000000000000D+00
   302  3.0100000000000D+00  0.0000000000000D+00  0.0000000000000D+00
   303  3.0200000000000D+00  0.0000000000000D+00  0.0000000000000D+00
   304  3.0300000000000D+00  0.0000000000000D+00  0.0000000000000D+00
   305  3.0400000000000D+00  0.0000000000000D+00  0.0000000000000D+00
   306  3.0500000000000D+00  0.0000000000000D+00  0.0000000000000D+00
   307  3.0600000000000D+00  0.0000000000000D+00  0.0000000000000D+00
   308  3.0700000000000D+00  0.0000000000000D+00  0.0000000000000D+00
   309  3.0800000000000D+00  0.0000000000000D+00  0.0000000000000D+00
   310  3.0900000000000D+00  0.0000000000000D+00  0.0000000000000D+00
   311  3.1000000000000D+00  0.0000000000000D+00  0.0000000000000D+00
   312  3.1100000000000D+00  0.0000000000000D+00  0.0000000000000D+00
   313  3.1200000000000D+00  0.0000000000000D+00  0.0000000000000D+00
   314  3.1300000000000D+00  0.0000000000000D+00  0.0000000000000D+00
   315  3.1400000000000D+00  0.0000000000000D+00  0.0000000000000D+00
   316  3.1500000000000D+00  0.0000000000000D+00  0.0000000000000D+00
   317  3.1600000000000D+00  0.0000000000000D+00  0.0000000000000D+00
   318  3.1700000000000D+00  0.0000000000000D+00  0.0000000000000D+00
   319  3.1800000000000D+00  0.0000000000000D+00  0.0000000000000D+00
   320  3.1900000000000D+00  0.0000000000000D+00  0.0000000000000D+00
   321  3.2000000000000D+00  0.0000000000000D+00  0.0000000000000D+00
   322  3.2100000000000D+00  0.0000000000000D+00  0.0000000000000D+00
   323  3.2200000000000D+00  0.0000000000000D+00  0.0000000000000D+00
   324  3.2300000000000D+00  0.0000000000000D+00  0.0000000000000D+00
   325  3.2400000000000D+00  0.0000000000000D+00  0.0000000000000D+00
   326  3.2500000000000D+00  0.0000000000000D+00  0.0000000000000D+00
   327  3.2600000000000D+00  0.0000000000000D+00  0.0000000000000D+00
   328  3.2700000000000D+00  0.0000000000000D+00  0.0000000000000D+00
   329  3.2800000000000D+00  0.0000000000000D+00  0.0000000000000D+00
   330  3.2900000000000D+00  0.0000000000000D+00  0.0000000000000D+00
   331  3.3000000000000D+00  0.0000000000000D+00  0.0000000000000D+00
   332  3.3100000000000D+00  0.0000000000000D+00  0.0000000000000D+00
   333  3.3200000000000D+00  0.0000000000000D+00  0.0000000000000D+00
   334  3.3300000000000D+00  0.0000000000000D+00  0.0000000000000D+00
   335  3.3400000000000D+00  0.0000000000000D+00  0.0000000000000D+00
   336  3.3500000000000D+00  0.0000000000000D+00  0.0000000000000D+00
   337  3.3600000000000D+00  0.0000000000000D+00  0.0000000000000D+00
   338  3.3700000000000D+00  0.0000000000000D+00  0.0000000000000D+00
   339  3.3800000000000D+00  0.0000000000000D+00  0.0000000000000D+00
   340  3.3900000000000D+00  0.0000000000000D+00  0.0000000000000D+00
   341  3.4000000000000D+00  0.0000000000000D+00  0.0000000000000D+00
   342  3.4100000000000D+00  0.0000000000000D+00  0.0000000000000D+00
   343  3.4200000000000D+00  0.0000000000000D+00  0.0000000000000D+00
   344  3.4300000000000D+00  0.0000000000000D+00  0.0000000000000D+00
   345  3.4400000000000D+00  0.0000000000000D+00  0.0000000000000D+00
   346  3.4500000000000D+00  0.0000000000000D+00  0.0000000000000D+00
   347  3.4600000000000D+00  0.0000000000000D+00  0.0000000000000D+00
   348  3.4700000000000D+00  0.0000000000000D+00  0.0000000000000D+00
   349  3.4800000000000D+00  0.0000000000000D+00  0.0000000000000D+00
   350  3.4900000000000D+00  0.0000000000000D+00  0.0000000000000D+00
   351  3.5000000000000D+00  0.0000000000000D+00  0.0000000000000D+00
   352  3.5100000000000D+00  0.0000000000000D+00  0.0000000000000D+00
   353  3.5200000000000D+00  0.0000000000000D+00  0.0000000000000D+00
   354  3.5300000000000D+00  0.0000000000000D+00  0.0000000000000D+00
   355  3.5400000000000D+00  0.0000000000000D+00  0.0000000000000D+00
   356  3.5500000000000D+00  0.0000000000000D+00  0.0000000000000D+00
   357  3.5600000000000D+00  0.0000000000000D+00  0.0000000000000D+00
   358  3.5700000000000D+00  0.0000000000000D+00  0.0000000000000D+00
   359  3.5800000000000D+00  0.0000000000000D+00  0.0000000000000D+00
   360  3.5900000000000D+00  0.0000000000000D+00  0.0000000000000D+00
   361  3.6000000000000D+00  0.0000000000000D+00  0.0000000000000D+00
   362  3.6100000000000D+00  0.0000000000000D+00  0.0000000000000D+00
   363  3.6200000000000D+00  0.0000000000000D+00  0.0000000000000D+00
   364  3.6300000000000D+00  0.0000000000000D+00  0.0000000000000D+00
   365  3.6400000000000D+00  0.0000000000000D+00  0.0000000000000D+00
   366  3.6500000000000D+00  0.0000000000000D+00  0.0000000000000D+00
   367  3.6600000000000D+00  0.0000000000000D+00  0.0000000000000D+00
   368  3.6700000000000D+00  0.0000000000000D+00  0.0000000000000D+00
   369  3.6800000000000D+00  0.0000000000000D+00  0.0000000000000D+00
   370  3.6900000000000D+00  0.0000000000000D+00  0.0000000000000D+00
   371  3.7000000000000D+00  0.0000000000000D+00  0.0000000000000D+00
   372  3.7100000000000D+00  0.0000000000000D+00  0.0000000000000D+00
   373  3.7200000000000D+00  0.0000000000000D+00  0.0000000000000D+00
   374  3.7300000000000D+00  0.0000000000000D+00  0.0000000000000D+00
   375  3.7400000000000D+00  0.0000000000000D+00  0.0000000000000D+00
   376  3.7500000000000D+00  0.0000000000000D+00  0.0000000000000D+00
   377  3.7600000000000D+00  0.0000000000000D+00  0.0000000000000D+00
   378  3.7700000000000D+00  0.0000000000000D+00  0.0000000000000D+00
   379  3.7800000000000D+00  0.0000000000000D+00  0.0000000000000D+00
   380  3.7900000000000D+00  0.0000000000000D+00  0.0000000000000D+00
   381  3.8000000000000D+00  0.0000000000000D+00  0.0000000000000D+00
   382  3.8100000000000D+00  0.0000000000000D+00  0.0000000000000D+00
   383  3.8200000000000D+00  0.0000000000000D+00  0.0000000000000D+00
   384  3.8300000000000D+00  0.0000000000000D+00  0.0000000000000D+00
   385  3.8400000000000D+00  0.0000000000000D+00  0.0000000000000D+00
   386  3.8500000000000D+00  0.0000000000000D+00  0.0000000000000D+00
   387  3.8600000000000D+00  0.0000000000000D+00  0.0000000000000D+00
   388  3.8700000000000D+00  0.0000000000000D+00  0.0000000000000D+00
   389  3.8800000000000D+00  0.0000000000000D+00  0.0000000000000D+00
   390  3.8900000000000D+00  0.0000000000000D+00  0.0000000000000D+00
   391  3.9000000000000D+00  0.0000000000000D+00  0.0000000000000D+00
   392  3.9100000000000D+00  0.0000000000000D+00  0.0000000000000D+00
   393  3.9200000000000D+00  0.0000000000000D+00  0.0000000000000D+00
   394  3.9300000000000D+00  0.0000000000000D+00  0.0000000000000D+00
   395  3.9400000000000D+00  0.0000000000000D+00  0.0000000000000D+00
   396  3.9500000000000D+00  0.0000000000000D+00  0.0000000000000D+00
   397  3.9600000000000D+00  0.0000000000000D+00  0.0000000000000D+00
   398  3.9700000000000D+00  0.0000000000000D+00  0.0000000000000D+00
   399  3.9800000000000D+00  0.0000000000000D+00  0.0000000000000D+00
   400  3.9900000000000D+00  0.0000000000000D+00  0.0000000000000D+00
   401  4.0000000000000D+00  0.0000000000000D+00  0.0000000000000D+00
   402  4.0100000000000D+00  0.0000000000000D+00  0.0000000000000D+00
   403  4.0200000000000D+00  0.0000000000000D+00  0.0000000000000D+00
   404  4.0300000000000D+00  0.0000000000000D+00  0.0000000000000D+00
   405  4.0400000000000D+00  0.0000000000000D+00  0.0000000000000D+00
   406  4.0500000000000D+00  0.0000000000000D+00  0.0000000000000D+00
   407  4.0600000000000D+00  0.0000000000000D+00  0.0000000000000D+00
   408  4.0700000000000D+00  0.0000000000000D+00  0.0000000000000D+00
   409  4.0800000000000D+00  0.0000000000000D+00  0.0000000000000D+00
   410  4.0900000000000D+00  0.0000000000000D+00  0.0000000000000D+00
   411  4.1000000000000D+00  0.0000000000000D+00  0.0000000000000D+00
   412  4.1100000000000D+00  0.0000000000000D+00  0.0000000000000D+00
   413  4.1200000000000D+00  0.0000000000000D+00  0.0000000000000D+00
   414  4.1300000000000D+00  0.0000000000000D+00  0.0000000000000D+00
   415  4.1400000000000D+00  0.0000000000000D+00  0.0000000000000D+00
   416  4.1500000000000D+00  0.0000000000000D+00  0.0000000000000D+00
   417  4.1600000000000D+00  0.0000000000000D+00  0.0000000000000D+00
   418  4.1700000000000D+00  0.0000000000000D+00  0.0000000000000D+00
   419  4.1800000000000D+00  0.0000000000000D+00  0.0000000000000D+00
   420  4.1900000000000D+00  0.0000000000000D+00  0.0000000000000D+00
   421  4.2000000000000D+00  0.0000000000000D+00  0.0000000000000D+00
   422  4.2100000000000D+00  0.0000000000000D+00  0.0000000000000D+00