Se    ONCVPSP-3.3.0  r_core=   1.21282   1.41626   1.61484
     34.0000     24.0000      220408    zatom,zion,pspd
     8       2   2     4   600     0    pspcod,pspxc,lmax,lloc,mmax,r2well
  5.99000000  0.00000000  0.00000000    rchrg fchrg qchrg
     2     2     2     0     0    nproj
     1     1           extension_switch
   0                         3.5434761150049D+00 -2.9554103258138D+00
     1  0.0000000000000D+00  2.1270505357052D-09 -6.0337346230455D-11
     2  1.0000000000000D-02  9.8778742598417D-02  4.8323838268745D-02
     3  2.0000000000000D-02  1.9718619803924D-01  9.6600397811968D-02
     4  3.0000000000000D-02  2.9485110899509D-01  1.4478240891172D-01
     5  4.0000000000000D-02  3.9140230589837D-01  1.9282261951442D-01
     6  5.0000000000000D-02  4.8646882051714D-01  2.4067380320185D-01
     7  6.0000000000000D-02  5.7968008162776D-01  2.8828876617294D-01
     8  7.0000000000000D-02  6.7066621761069D-01  3.3562035297892D-01
     9  8.0000000000000D-02  7.5905848866890D-01  3.8262145081511D-01
    10  9.0000000000000D-02  8.4448986877012D-01  4.2924499224535D-01
    11  1.0000000000000D-01  9.2659579438508D-01  4.7544395631990D-01
    12  1.1000000000000D-01  1.0050150936791D+00  5.2117136814144D-01
    13  1.2000000000000D-01  1.0793911060664D+00  5.6638029703579D-01
    14  1.3000000000000D-01  1.1493729980144D+00  6.1102385359118D-01
    15  1.4000000000000D-01  1.2146172767472D+00  6.5505518594072D-01
    16  1.5000000000000D-01  1.2747894991165D+00  6.9842747577414D-01
    17  1.6000000000000D-01  1.3295661684443D+00  7.4109393467522D-01
    18  1.7000000000000D-01  1.3786368076767D+00  7.8300780148677D-01
    19  1.8000000000000D-01  1.4217061927792D+00  8.2412234150495D-01
    20  1.9000000000000D-01  1.4584967260427D+00  8.6439084839446D-01
    21  2.0000000000000D-01  1.4887509249046D+00  9.0376664979523D-01
    22  2.1000000000000D-01  1.5122339981085D+00  9.4220311765602D-01
    23  2.2000000000000D-01  1.5287364775826D+00  9.7965368437941D-01
    24  2.3000000000000D-01  1.5380768713795D+00  1.0160718658940D+00
    25  2.4000000000000D-01  1.5401043004426D+00  1.0514112927811D+00
    26  2.5000000000000D-01  1.5347010798943D+00  1.0856257505742D+00
    27  2.6000000000000D-01  1.5217852040356D+00  1.1186692303179D+00
    28  2.7000000000000D-01  1.5013126933220D+00  1.1504959904191D+00
    29  2.8000000000000D-01  1.4732797612885D+00  1.1810606307451D+00
    30  2.9000000000000D-01  1.4377247597403D+00  1.2103181798242D+00
    31  3.0000000000000D-01  1.3947298615230D+00  1.2382241958768D+00
    32  3.1000000000000D-01  1.3444224418444D+00  1.2647348822639D+00
    33  3.2000000000000D-01  1.2869761214234D+00  1.2898072177671D+00
    34  3.3000000000000D-01  1.2226114376746D+00  1.3133991019301D+00
    35  3.4000000000000D-01  1.1515961136856D+00  1.3354695154855D+00
    36  3.5000000000000D-01  1.0742448988496D+00  1.3559786956702D+00
    37  3.6000000000000D-01  9.9091895966271D-01  1.3748883259956D+00
    38  3.7000000000000D-01  9.0202480430031D-01  1.3921617397996D+00
    39  3.8000000000000D-01  8.0801273011563D-01  1.4077641366505D+00
    40  3.9000000000000D-01  7.0937478907057D-01  1.4216628104215D+00
    41  4.0000000000000D-01  6.0664227224599D-01  1.4338273875966D+00
    42  4.1000000000000D-01  5.0038272090603D-01  1.4442300741186D+00
    43  4.2000000000000D-01  3.9119647802228D-01  1.4528459088464D+00
    44  4.3000000000000D-01  2.7971280061142D-01  1.4596530214535D+00
    45  4.4000000000000D-01  1.6658555961412D-01  1.4646328923875D+00
    46  4.5000000000000D-01  5.2488560251856D-02  1.4677706123074D+00
    47  4.6000000000000D-01 -6.1889478248728D-02  1.4690551382471D+00
    48  4.7000000000000D-01 -1.7585023906771D-01  1.4684795436002D+00
    49  4.8000000000000D-01 -2.8869137066874D-01  1.4660412589092D+00
    50  4.9000000000000D-01 -3.9971224181061D-01  1.4617423003533D+00
    51  5.0000000000000D-01 -5.0821983029568D-01  1.4555894827859D+00
    52  5.1000000000000D-01 -6.1353468365330D-01  1.4475946141578D+00
    53  5.2000000000000D-01 -7.1499688727888D-01  1.4377746681965D+00
    54  5.3000000000000D-01 -8.1197197364994D-01  1.4261519322822D+00
    55  5.4000000000000D-01 -9.0385670516916D-01  1.4127541275743D+00
    56  5.5000000000000D-01 -9.9008466296839D-01  1.3976144986022D+00
    57  5.6000000000000D-01 -1.0701315746770D+00  1.3807718697296D+00
    58  5.7000000000000D-01 -1.1435203157158D+00  1.3622706661462D+00
    59  5.8000000000000D-01 -1.2098255211310D+00  1.3421608973192D+00
    60  5.9000000000000D-01 -1.2686777483104D+00  1.3204981011576D+00
    61  6.0000000000000D-01 -1.3197671351086D+00  1.2973432474957D+00
    62  6.1000000000000D-01 -1.3628465028924D+00  1.2727625998888D+00
    63  6.2000000000000D-01 -1.3977338597970D+00  1.2468275351306D+00
    64  6.3000000000000D-01 -1.4243142659047D+00  1.2196143203372D+00
    65  6.4000000000000D-01 -1.4425410291843D+00  1.1912038479036D+00
    66  6.5000000000000D-01 -1.4524362086336D+00  1.1616813291097D+00
    67  6.6000000000000D-01 -1.4540904091440D+00  1.1311359476304D+00
    68  6.7000000000000D-01 -1.4476618610615D+00  1.0996604746912D+00
    69  6.8000000000000D-01 -1.4333747860887D+00  1.0673508480884D+00
    70  6.9000000000000D-01 -1.4115170599510D+00  1.0343057177582D+00
    71  7.0000000000000D-01 -1.3824371911205D+00  1.0006259610402D+00
    72  7.1000000000000D-01 -1.3465406435789D+00  9.6641417120287D-01
    73  7.2000000000000D-01 -1.3042855401125D+00  9.3177412320806D-01
    74  7.3000000000000D-01 -1.2561777907712D+00  8.9681022105386D-01
    75  7.4000000000000D-01 -1.2027656988359D+00  8.6162693136518D-01
    76  7.5000000000000D-01 -1.1446341037656D+00  8.2632820818283D-01
    77  7.6000000000000D-01 -1.0823981270434D+00  7.9101691413269D-01
    78  7.7000000000000D-01 -1.0166965925277D+00  7.5579424333368D-01
    79  7.8000000000000D-01 -9.4818519773723D-01  7.2075915152096D-01
    80  7.9000000000000D-01 -8.7752951638467D-01  6.8600779891793D-01
    81  8.0000000000000D-01 -8.0539791535326D-01  6.5163301138256D-01
    82  8.1000000000000D-01 -7.3245447113382D-01  6.1772376528204D-01
    83  8.2000000000000D-01 -6.5935197147184D-01  5.8436470140983D-01
    84  8.3000000000000D-01 -5.8672508757647D-01  5.5163567305526D-01
    85  8.4000000000000D-01 -5.1518380072356D-01  5.1961133306553D-01
    86  8.5000000000000D-01 -4.4530716443825D-01  4.8836076440754D-01
    87  8.6000000000000D-01 -3.7763747969638D-01  4.5794715834310D-01
    88  8.7000000000000D-01 -3.1267495577390D-01  4.2842754388148D-01
    89  8.8000000000000D-01 -2.5087292355348D-01  3.9985257167034D-01
    90  8.9000000000000D-01 -1.9263366133601D-01  3.7226635493629D-01
    91  9.0000000000000D-01 -1.3830488558396D-01  3.4570636949537D-01
    92  9.1000000000000D-01 -8.8176950639607D-02  3.2020341422765D-01
    93  9.2000000000000D-01 -4.2480792378153D-02  2.9578163275411D-01
    94  9.3000000000000D-01 -1.3866412736826D-03  2.7245859638689D-01
    95  9.4000000000000D-01  3.4996479784456D-02  2.5024544772907D-01
    96  9.5000000000000D-01  6.6620467770329D-02  2.2914710361666D-01
    97  9.6000000000000D-01  9.3497067206262D-02  2.0916251540855D-01
    98  9.7000000000000D-01  1.1569602898821D-01  1.9028498395826D-01
    99  9.8000000000000D-01  1.3334252637414D-01  1.7250252595180D-01
   100  9.9000000000000D-01  1.4661386415862D-01  1.5579828767588D-01
   101  1.0000000000000D+00  1.5573552663555D-01  1.4015100169983D-01
   102  1.0100000000000D+00  1.6097661907663D-01  1.2553548141289D-01
   103  1.0200000000000D+00  1.6264476544436D-01  1.1192314789547D-01
   104  1.0300000000000D+00  1.6108053310355D-01  9.9282583151230D-02
   105  1.0400000000000D+00  1.5665146150922D-01  8.7580103392691D-02
   106  1.0500000000000D+00  1.4974577761181D-01  7.6780345777403D-02
   107  1.0600000000000D+00  1.4076588523377D-01  6.6846861781535D-02
   108  1.0700000000000D+00  1.3012171890098D-01  5.7742710270466D-02
   109  1.0800000000000D+00  1.1822405490289D-01  4.9431043262322D-02
   110  1.0900000000000D+00  1.0547787317953D-01  4.1875677418808D-02
   111  1.1000000000000D+00  9.2275863261401D-02  3.5041644402617D-02
   112  1.1100000000000D+00  7.8992165527588D-02  2.8895713461304D-02
   113  1.1200000000000D+00  6.5976436815255D-02  2.3406879813064D-02
   114  1.1300000000000D+00  5.3548324726305D-02  1.8546812810580D-02
   115  1.1400000000000D+00  4.1992429986721D-02  1.4290258252671D-02
   116  1.1500000000000D+00  3.1553829085345D-02  1.0615389758334D-02
   117  1.1600000000000D+00  2.2434223769056D-02  7.5041045425595D-03
   118  1.1700000000000D+00  1.4788774095008D-02  4.9422596576156D-03
   119  1.1800000000000D+00  8.7267911936588D-03  2.9209791180458D-03
   120  1.1900000000000D+00  4.2720101118837D-03  1.4236225781002D-03
   121  1.2000000000000D+00  1.5278414863659D-03  4.8145948849905D-04
   122  1.2100000000000D+00  3.8289903174779D-04  7.6851339304181D-05
   123  1.2200000000000D+00  5.3123855612675D-05 -1.0399614553476D-05
   124  1.2300000000000D+00 -2.5450662213252D-06  3.1845574465934D-06
   125  1.2400000000000D+00  1.0476624719776D-07  2.1401635319529D-06
   126  1.2500000000000D+00  1.3205972782600D-06 -8.1770515861669D-07
   127  1.2600000000000D+00 -4.4980647571219D-07 -5.7604333799184D-08
   128  1.2700000000000D+00 -2.7791354331202D-07 -3.5590916050980D-08
   129  1.2800000000000D+00  0.0000000000000D+00  0.0000000000000D+00
   130  1.2900000000000D+00  0.0000000000000D+00  0.0000000000000D+00
   131  1.3000000000000D+00  0.0000000000000D+00  0.0000000000000D+00
   132  1.3100000000000D+00  0.0000000000000D+00  0.0000000000000D+00
   133  1.3200000000000D+00  0.0000000000000D+00  0.0000000000000D+00
   134  1.3300000000000D+00  0.0000000000000D+00  0.0000000000000D+00
   135  1.3400000000000D+00  0.0000000000000D+00  0.0000000000000D+00
   136  1.3500000000000D+00  0.0000000000000D+00  0.0000000000000D+00
   137  1.3600000000000D+00  0.0000000000000D+00  0.0000000000000D+00
   138  1.3700000000000D+00  0.0000000000000D+00  0.0000000000000D+00
   139  1.3800000000000D+00  0.0000000000000D+00  0.0000000000000D+00
   140  1.3900000000000D+00  0.0000000000000D+00  0.0000000000000D+00
   141  1.4000000000000D+00  0.0000000000000D+00  0.0000000000000D+00
   142  1.4100000000000D+00  0.0000000000000D+00  0.0000000000000D+00
   143  1.4200000000000D+00  0.0000000000000D+00  0.0000000000000D+00
   144  1.4300000000000D+00  0.0000000000000D+00  0.0000000000000D+00
   145  1.4400000000000D+00  0.0000000000000D+00  0.0000000000000D+00
   146  1.4500000000000D+00  0.0000000000000D+00  0.0000000000000D+00
   147  1.4600000000000D+00  0.0000000000000D+00  0.0000000000000D+00
   148  1.4700000000000D+00  0.0000000000000D+00  0.0000000000000D+00
   149  1.4800000000000D+00  0.0000000000000D+00  0.0000000000000D+00
   150  1.4900000000000D+00  0.0000000000000D+00  0.0000000000000D+00
   151  1.5000000000000D+00  0.0000000000000D+00  0.0000000000000D+00
   152  1.5100000000000D+00  0.0000000000000D+00  0.0000000000000D+00
   153  1.5200000000000D+00  0.0000000000000D+00  0.0000000000000D+00
   154  1.5300000000000D+00  0.0000000000000D+00  0.0000000000000D+00
   155  1.5400000000000D+00  0.0000000000000D+00  0.0000000000000D+00
   156  1.5500000000000D+00  0.0000000000000D+00  0.0000000000000D+00
   157  1.5600000000000D+00  0.0000000000000D+00  0.0000000000000D+00
   158  1.5700000000000D+00  0.0000000000000D+00  0.0000000000000D+00
   159  1.5800000000000D+00  0.0000000000000D+00  0.0000000000000D+00
   160  1.5900000000000D+00  0.0000000000000D+00  0.0000000000000D+00
   161  1.6000000000000D+00  0.0000000000000D+00  0.0000000000000D+00
   162  1.6100000000000D+00  0.0000000000000D+00  0.0000000000000D+00
   163  1.6200000000000D+00  0.0000000000000D+00  0.0000000000000D+00
   164  1.6300000000000D+00  0.0000000000000D+00  0.0000000000000D+00
   165  1.6400000000000D+00  0.0000000000000D+00  0.0000000000000D+00
   166  1.6500000000000D+00  0.0000000000000D+00  0.0000000000000D+00
   167  1.6600000000000D+00  0.0000000000000D+00  0.0000000000000D+00
   168  1.6700000000000D+00  0.0000000000000D+00  0.0000000000000D+00
   169  1.6800000000000D+00  0.0000000000000D+00  0.0000000000000D+00
   170  1.6900000000000D+00  0.0000000000000D+00  0.0000000000000D+00
   171  1.7000000000000D+00  0.0000000000000D+00  0.0000000000000D+00
   172  1.7100000000000D+00  0.0000000000000D+00  0.0000000000000D+00
   173  1.7200000000000D+00  0.0000000000000D+00  0.0000000000000D+00
   174  1.7300000000000D+00  0.0000000000000D+00  0.0000000000000D+00
   175  1.7400000000000D+00  0.0000000000000D+00  0.0000000000000D+00
   176  1.7500000000000D+00  0.0000000000000D+00  0.0000000000000D+00
   177  1.7600000000000D+00  0.0000000000000D+00  0.0000000000000D+00
   178  1.7700000000000D+00  0.0000000000000D+00  0.0000000000000D+00
   179  1.7800000000000D+00  0.0000000000000D+00  0.0000000000000D+00
   180  1.7900000000000D+00  0.0000000000000D+00  0.0000000000000D+00
   181  1.8000000000000D+00  0.0000000000000D+00  0.0000000000000D+00
   182  1.8100000000000D+00  0.0000000000000D+00  0.0000000000000D+00
   183  1.8200000000000D+00  0.0000000000000D+00  0.0000000000000D+00
   184  1.8300000000000D+00  0.0000000000000D+00  0.0000000000000D+00
   185  1.8400000000000D+00  0.0000000000000D+00  0.0000000000000D+00
   186  1.8500000000000D+00  0.0000000000000D+00  0.0000000000000D+00
   187  1.8600000000000D+00  0.0000000000000D+00  0.0000000000000D+00
   188  1.8700000000000D+00  0.0000000000000D+00  0.0000000000000D+00
   189  1.8800000000000D+00  0.0000000000000D+00  0.0000000000000D+00
   190  1.8900000000000D+00  0.0000000000000D+00  0.0000000000000D+00
   191  1.9000000000000D+00  0.0000000000000D+00  0.0000000000000D+00
   192  1.9100000000000D+00  0.0000000000000D+00  0.0000000000000D+00
   193  1.9200000000000D+00  0.0000000000000D+00  0.0000000000000D+00
   194  1.9300000000000D+00  0.0000000000000D+00  0.0000000000000D+00
   195  1.9400000000000D+00  0.0000000000000D+00  0.0000000000000D+00
   196  1.9500000000000D+00  0.0000000000000D+00  0.0000000000000D+00
   197  1.9600000000000D+00  0.0000000000000D+00  0.0000000000000D+00
   198  1.9700000000000D+00  0.0000000000000D+00  0.0000000000000D+00
   199  1.9800000000000D+00  0.0000000000000D+00  0.0000000000000D+00
   200  1.9900000000000D+00  0.0000000000000D+00  0.0000000000000D+00
   201  2.0000000000000D+00  0.0000000000000D+00  0.0000000000000D+00
   202  2.0100000000000D+00  0.0000000000000D+00  0.0000000000000D+00
   203  2.0200000000000D+00  0.0000000000000D+00  0.0000000000000D+00
   204  2.0300000000000D+00  0.0000000000000D+00  0.0000000000000D+00
   205  2.0400000000000D+00  0.0000000000000D+00  0.0000000000000D+00
   206  2.0500000000000D+00  0.0000000000000D+00  0.0000000000000D+00
   207  2.0600000000000D+00  0.0000000000000D+00  0.0000000000000D+00
   208  2.0700000000000D+00  0.0000000000000D+00  0.0000000000000D+00
   209  2.0800000000000D+00  0.0000000000000D+00  0.0000000000000D+00
   210  2.0900000000000D+00  0.0000000000000D+00  0.0000000000000D+00
   211  2.1000000000000D+00  0.0000000000000D+00  0.0000000000000D+00
   212  2.1100000000000D+00  0.0000000000000D+00  0.0000000000000D+00
   213  2.1200000000000D+00  0.0000000000000D+00  0.0000000000000D+00
   214  2.1300000000000D+00  0.0000000000000D+00  0.0000000000000D+00
   215  2.1400000000000D+00  0.0000000000000D+00  0.0000000000000D+00
   216  2.1500000000000D+00  0.0000000000000D+00  0.0000000000000D+00
   217  2.1600000000000D+00  0.0000000000000D+00  0.0000000000000D+00
   218  2.1700000000000D+00  0.0000000000000D+00  0.0000000000000D+00
   219  2.1800000000000D+00  0.0000000000000D+00  0.0000000000000D+00
   220  2.1900000000000D+00  0.0000000000000D+00  0.0000000000000D+00
   221  2.2000000000000D+00  0.0000000000000D+00  0.0000000000000D+00
   222  2.2100000000000D+00  0.0000000000000D+00  0.0000000000000D+00
   223  2.2200000000000D+00  0.0000000000000D+00  0.0000000000000D+00
   224  2.2300000000000D+00  0.0000000000000D+00  0.0000000000000D+00
   225  2.2400000000000D+00  0.0000000000000D+00  0.0000000000000D+00
   226  2.2500000000000D+00  0.0000000000000D+00  0.0000000000000D+00
   227  2.2600000000000D+00  0.0000000000000D+00  0.0000000000000D+00
   228  2.2700000000000D+00  0.0000000000000D+00  0.0000000000000D+00
   229  2.2800000000000D+00  0.0000000000000D+00  0.0000000000000D+00
   230  2.2900000000000D+00  0.0000000000000D+00  0.0000000000000D+00
   231  2.3000000000000D+00  0.0000000000000D+00  0.0000000000000D+00
   232  2.3100000000000D+00  0.0000000000000D+00  0.0000000000000D+00
   233  2.3200000000000D+00  0.0000000000000D+00  0.0000000000000D+00
   234  2.3300000000000D+00  0.0000000000000D+00  0.0000000000000D+00
   235  2.3400000000000D+00  0.0000000000000D+00  0.0000000000000D+00
   236  2.3500000000000D+00  0.0000000000000D+00  0.0000000000000D+00
   237  2.3600000000000D+00  0.0000000000000D+00  0.0000000000000D+00
   238  2.3700000000000D+00  0.0000000000000D+00  0.0000000000000D+00
   239  2.3800000000000D+00  0.0000000000000D+00  0.0000000000000D+00
   240  2.3900000000000D+00  0.0000000000000D+00  0.0000000000000D+00
   241  2.4000000000000D+00  0.0000000000000D+00  0.0000000000000D+00
   242  2.4100000000000D+00  0.0000000000000D+00  0.0000000000000D+00
   243  2.4200000000000D+00  0.0000000000000D+00  0.0000000000000D+00
   244  2.4300000000000D+00  0.0000000000000D+00  0.0000000000000D+00
   245  2.4400000000000D+00  0.0000000000000D+00  0.0000000000000D+00
   246  2.4500000000000D+00  0.0000000000000D+00  0.0000000000000D+00
   247  2.4600000000000D+00  0.0000000000000D+00  0.0000000000000D+00
   248  2.4700000000000D+00  0.0000000000000D+00  0.0000000000000D+00
   249  2.4800000000000D+00  0.0000000000000D+00  0.0000000000000D+00
   250  2.4900000000000D+00  0.0000000000000D+00  0.0000000000000D+00
   251  2.5000000000000D+00  0.0000000000000D+00  0.0000000000000D+00
   252  2.5100000000000D+00  0.0000000000000D+00  0.0000000000000D+00
   253  2.5200000000000D+00  0.0000000000000D+00  0.0000000000000D+00
   254  2.5300000000000D+00  0.0000000000000D+00  0.0000000000000D+00
   255  2.5400000000000D+00  0.0000000000000D+00  0.0000000000000D+00
   256  2.5500000000000D+00  0.0000000000000D+00  0.0000000000000D+00
   257  2.5600000000000D+00  0.0000000000000D+00  0.0000000000000D+00
   258  2.5700000000000D+00  0.0000000000000D+00  0.0000000000000D+00
   259  2.5800000000000D+00  0.0000000000000D+00  0.0000000000000D+00
   260  2.5900000000000D+00  0.0000000000000D+00  0.0000000000000D+00
   261  2.6000000000000D+00  0.0000000000000D+00  0.0000000000000D+00
   262  2.6100000000000D+00  0.0000000000000D+00  0.0000000000000D+00
   263  2.6200000000000D+00  0.0000000000000D+00  0.0000000000000D+00
   264  2.6300000000000D+00  0.0000000000000D+00  0.0000000000000D+00
   265  2.6400000000000D+00  0.0000000000000D+00  0.0000000000000D+00
   266  2.6500000000000D+00  0.0000000000000D+00  0.0000000000000D+00
   267  2.6600000000000D+00  0.0000000000000D+00  0.0000000000000D+00
   268  2.6700000000000D+00  0.0000000000000D+00  0.0000000000000D+00
   269  2.6800000000000D+00  0.0000000000000D+00  0.0000000000000D+00
   270  2.6900000000000D+00  0.0000000000000D+00  0.0000000000000D+00
   271  2.7000000000000D+00  0.0000000000000D+00  0.0000000000000D+00
   272  2.7100000000000D+00  0.0000000000000D+00  0.0000000000000D+00
   273  2.7200000000000D+00  0.0000000000000D+00  0.0000000000000D+00
   274  2.7300000000000D+00  0.0000000000000D+00  0.0000000000000D+00
   275  2.7400000000000D+00  0.0000000000000D+00  0.0000000000000D+00
   276  2.7500000000000D+00  0.0000000000000D+00  0.0000000000000D+00
   277  2.7600000000000D+00  0.0000000000000D+00  0.0000000000000D+00
   278  2.7700000000000D+00  0.0000000000000D+00  0.0000000000000D+00
   279  2.7800000000000D+00  0.0000000000000D+00  0.0000000000000D+00
   280  2.7900000000000D+00  0.0000000000000D+00  0.0000000000000D+00
   281  2.8000000000000D+00  0.0000000000000D+00  0.0000000000000D+00
   282  2.8100000000000D+00  0.0000000000000D+00  0.0000000000000D+00
   283  2.8200000000000D+00  0.0000000000000D+00  0.0000000000000D+00
   284  2.8300000000000D+00  0.0000000000000D+00  0.0000000000000D+00
   285  2.8400000000000D+00  0.0000000000000D+00  0.0000000000000D+00
   286  2.8500000000000D+00  0.0000000000000D+00  0.0000000000000D+00
   287  2.8600000000000D+00  0.0000000000000D+00  0.0000000000000D+00
   288  2.8700000000000D+00  0.0000000000000D+00  0.0000000000000D+00
   289  2.8800000000000D+00  0.0000000000000D+00  0.0000000000000D+00
   290  2.8900000000000D+00  0.0000000000000D+00  0.0000000000000D+00
   291  2.9000000000000D+00  0.0000000000000D+00  0.0000000000000D+00
   292  2.9100000000000D+00  0.0000000000000D+00  0.0000000000000D+00
   293  2.9200000000000D+00  0.0000000000000D+00  0.0000000000000D+00
   294  2.9300000000000D+00  0.0000000000000D+00  0.0000000000000D+00
   295  2.9400000000000D+00  0.0000000000000D+00  0.0000000000000D+00
   296  2.9500000000000D+00  0.0000000000000D+00  0.0000000000000D+00
   297  2.9600000000000D+00  0.0000000000000D+00  0.0000000000000D+00
   298  2.9700000000000D+00  0.0000000000000D+00  0.0000000000000D+00
   299  2.9800000000000D+00  0.0000000000000D+00  0.0000000000000D+00
   300  2.9900000000000D+00  0.0000000000000D+00  0.0000000000000D+00
   301  3.0000000000000D+00  0.0000000000000D+00  0.0000000000000D+00
   302  3.0100000000000D+00  0.0000000000000D+00  0.0000000000000D+00
   303  3.0200000000000D+00  0.0000000000000D+00  0.0000000000000D+00
   304  3.0300000000000D+00  0.0000000000000D+00  0.0000000000000D+00
   305  3.0400000000000D+00  0.0000000000000D+00  0.0000000000000D+00
   306  3.0500000000000D+00  0.0000000000000D+00  0.0000000000000D+00
   307  3.0600000000000D+00  0.0000000000000D+00  0.0000000000000D+00
   308  3.0700000000000D+00  0.0000000000000D+00  0.0000000000000D+00
   309  3.0800000000000D+00  0.0000000000000D+00  0.0000000000000D+00
   310  3.0900000000000D+00  0.0000000000000D+00  0.0000000000000D+00
   311  3.1000000000000D+00  0.0000000000000D+00  0.0000000000000D+00
   312  3.1100000000000D+00  0.0000000000000D+00  0.0000000000000D+00
   313  3.1200000000000D+00  0.0000000000000D+00  0.0000000000000D+00
   314  3.1300000000000D+00  0.0000000000000D+00  0.0000000000000D+00
   315  3.1400000000000D+00  0.0000000000000D+00  0.0000000000000D+00
   316  3.1500000000000D+00  0.0000000000000D+00  0.0000000000000D+00
   317  3.1600000000000D+00  0.0000000000000D+00  0.0000000000000D+00
   318  3.1700000000000D+00  0.0000000000000D+00  0.0000000000000D+00
   319  3.1800000000000D+00  0.0000000000000D+00  0.0000000000000D+00
   320  3.1900000000000D+00  0.0000000000000D+00  0.0000000000000D+00
   321  3.2000000000000D+00  0.0000000000000D+00  0.0000000000000D+00
   322  3.2100000000000D+00  0.0000000000000D+00  0.0000000000000D+00
   323  3.2200000000000D+00  0.0000000000000D+00  0.0000000000000D+00
   324  3.2300000000000D+00  0.0000000000000D+00  0.0000000000000D+00
   325  3.2400000000000D+00  0.0000000000000D+00  0.0000000000000D+00
   326  3.2500000000000D+00  0.0000000000000D+00  0.0000000000000D+00
   327  3.2600000000000D+00  0.0000000000000D+00  0.0000000000000D+00
   328  3.2700000000000D+00  0.0000000000000D+00  0.0000000000000D+00
   329  3.2800000000000D+00  0.0000000000000D+00  0.0000000000000D+00
   330  3.2900000000000D+00  0.0000000000000D+00  0.0000000000000D+00
   331  3.3000000000000D+00  0.0000000000000D+00  0.0000000000000D+00
   332  3.3100000000000D+00  0.0000000000000D+00  0.0000000000000D+00
   333  3.3200000000000D+00  0.0000000000000D+00  0.0000000000000D+00
   334  3.3300000000000D+00  0.0000000000000D+00  0.0000000000000D+00
   335  3.3400000000000D+00  0.0000000000000D+00  0.0000000000000D+00
   336  3.3500000000000D+00  0.0000000000000D+00  0.0000000000000D+00
   337  3.3600000000000D+00  0.0000000000000D+00  0.0000000000000D+00
   338  3.3700000000000D+00  0.0000000000000D+00  0.0000000000000D+00
   339  3.3800000000000D+00  0.0000000000000D+00  0.0000000000000D+00
   340  3.3900000000000D+00  0.0000000000000D+00  0.0000000000000D+00
   341  3.4000000000000D+00  0.0000000000000D+00  0.0000000000000D+00
   342  3.4100000000000D+00  0.0000000000000D+00  0.0000000000000D+00
   343  3.4200000000000D+00  0.0000000000000D+00  0.0000000000000D+00
   344  3.4300000000000D+00  0.0000000000000D+00  0.0000000000000D+00
   345  3.4400000000000D+00  0.0000000000000D+00  0.0000000000000D+00
   346  3.4500000000000D+00  0.0000000000000D+00  0.0000000000000D+00
   347  3.4600000000000D+00  0.0000000000000D+00  0.0000000000000D+00
   348  3.4700000000000D+00  0.0000000000000D+00  0.0000000000000D+00
   349  3.4800000000000D+00  0.0000000000000D+00  0.0000000000000D+00
   350  3.4900000000000D+00  0.0000000000000D+00  0.0000000000000D+00
   351  3.5000000000000D+00  0.0000000000000D+00  0.0000000000000D+00
   352  3.5100000000000D+00  0.0000000000000D+00  0.0000000000000D+00
   353  3.5200000000000D+00  0.0000000000000D+00  0.0000000000000D+00
   354  3.5300000000000D+00  0.0000000000000D+00  0.0000000000000D+00
   355  3.5400000000000D+00  0.0000000000000D+00  0.0000000000000D+00
   356  3.5500000000000D+00  0.0000000000000D+00  0.0000000000000D+00
   357  3.5600000000000D+00  0.0000000000000D+00  0.0000000000000D+00
   358  3.5700000000000D+00  0.0000000000000D+00  0.0000000000000D+00
   359  3.5800000000000D+00  0.0000000000000D+00  0.0000000000000D+00
   360  3.5900000000000D+00  0.0000000000000D+00  0.0000000000000D+00
   361  3.6000000000000D+00  0.0000000000000D+00  0.0000000000000D+00
   362  3.6100000000000D+00  0.0000000000000D+00  0.0000000000000D+00
   363  3.6200000000000D+00  0.0000000000000D+00  0.0000000000000D+00
   364  3.6300000000000D+00  0.0000000000000D+00  0.0000000000000D+00
   365  3.6400000000000D+00  0.0000000000000D+00  0.0000000000000D+00
   366  3.6500000000000D+00  0.0000000000000D+00  0.0000000000000D+00
   367  3.6600000000000D+00  0.0000000000000D+00  0.0000000000000D+00
   368  3.6700000000000D+00  0.0000000000000D+00  0.0000000000000D+00
   369  3.6800000000000D+00  0.0000000000000D+00  0.0000000000000D+00
   370  3.6900000000000D+00  0.0000000000000D+00  0.0000000000000D+00
   371  3.7000000000000D+00  0.0000000000000D+00  0.0000000000000D+00
   372  3.7100000000000D+00  0.0000000000000D+00  0.0000000000000D+00
   373  3.7200000000000D+00  0.0000000000000D+00  0.0000000000000D+00
   374  3.7300000000000D+00  0.0000000000000D+00  0.0000000000000D+00
   375  3.7400000000000D+00  0.0000000000000D+00  0.0000000000000D+00
   376  3.7500000000000D+00  0.0000000000000D+00  0.0000000000000D+00
   377  3.7600000000000D+00  0.0000000000000D+00  0.0000000000000D+00
   378  3.7700000000000D+00  0.0000000000000D+00  0.0000000000000D+00
   379  3.7800000000000D+00  0.0000000000000D+00  0.0000000000000D+00
   380  3.7900000000000D+00  0.0000000000000D+00  0.0000000000000D+00
   381  3.8000000000000D+00  0.0000000000000D+00  0.0000000000000D+00
   382  3.8100000000000D+00  0.0000000000000D+00  0.0000000000000D+00
   383  3.8200000000000D+00  0.0000000000000D+00  0.0000000000000D+00
   384  3.8300000000000D+00  0.0000000000000D+00  0.0000000000000D+00
   385  3.8400000000000D+00  0.0000000000000D+00  0.0000000000000D+00
   386  3.8500000000000D+00  0.0000000000000D+00  0.0000000000000D+00
   387  3.8600000000000D+00  0.0000000000000D+00  0.0000000000000D+00
   388  3.8700000000000D+00  0.0000000000000D+00  0.0000000000000D+00
   389  3.8800000000000D+00  0.0000000000000D+00  0.0000000000000D+00
   390  3.8900000000000D+00  0.0000000000000D+00  0.0000000000000D+00
   391  3.9000000000000D+00  0.0000000000000D+00  0.0000000000000D+00
   392  3.9100000000000D+00  0.0000000000000D+00  0.0000000000000D+00
   393  3.9200000000000D+00  0.0000000000000D+00  0.0000000000000D+00
   394  3.9300000000000D+00  0.0000000000000D+00  0.0000000000000D+00
   395  3.9400000000000D+00  0.0000000000000D+00  0.0000000000000D+00
   396  3.9500000000000D+00  0.0000000000000D+00  0.0000000000000D+00
   397  3.9600000000000D+00  0.0000000000000D+00  0.0000000000000D+00
   398  3.9700000000000D+00  0.0000000000000D+00  0.0000000000000D+00
   399  3.9800000000000D+00  0.0000000000000D+00  0.0000000000000D+00
   400  3.9900000000000D+00  0.0000000000000D+00  0.0000000000000D+00
   401  4.0000000000000D+00  0.0000000000000D+00  0.0000000000000D+00
   402  4.0100000000000D+00  0.0000000000000D+00  0.0000000000000D+00
   403  4.0200000000000D+00  0.0000000000000D+00  0.0000000000000D+00
   404  4.0300000000000D+00  0.0000000000000D+00  0.0000000000000D+00
   405  4.0400000000000D+00  0.0000000000000D+00  0.0000000000000D+00
   406  4.0500000000000D+00  0.0000000000000D+00  0.0000000000000D+00
   407  4.0600000000000D+00  0.0000000000000D+00  0.0000000000000D+00
   408  4.0700000000000D+00  0.0000000000000D+00  0.0000000000000D+00
   409  4.0800000000000D+00  0.0000000000000D+00  0.0000000000000D+00
   410  4.0900000000000D+00  0.0000000000000D+00  0.0000000000000D+00
   411  4.1000000000000D+00  0.0000000000000D+00  0.0000000000000D+00
   412  4.1100000000000D+00  0.0000000000000D+00  0.0000000000000D+00
   413  4.1200000000000D+00  0.0000000000000D+00  0.0000000000000D+00
   414  4.1300000000000D+00  0.0000000000000D+00  0.0000000000000D+00
   415  4.1400000000000D+00  0.0000000000000D+00  0.0000000000000D+00
   416  4.1500000000000D+00  0.0000000000000D+00  0.0000000000000D+00
   417  4.1600000000000D+00  0.0000000000000D+00  0.0000000000000D+00
   418  4.1700000000000D+00  0.0000000000000D+00  0.0000000000000D+00
   419  4.1800000000000D+00  0.0000000000000D+00  0.0000000000000D+00
   420  4.1900000000000D+00  0.0000000000000D+00  0.0000000000000D+00
   421  4.2000000000000D+00  0.0000000000000D+00  0.0000000000000D+00
   422  4.2100000000000D+00  0.0000000000000D+00  0.0000000000000D+00