Se    ONCVPSP-3.3.0  r_core=   1.81943   1.55807   2.07453
     34.0000      6.0000      220408    zatom,zion,pspd
     8       2   2     4   600     0    pspcod,pspxc,lmax,lloc,mmax,r2well
  5.99000000  0.00000000  0.00000000    rchrg fchrg qchrg
     2     2     2     0     0    nproj
     1     1           extension_switch
   0                         1.0865284637071D+01  1.2536038167451D+00
     1  0.0000000000000D+00 -6.2463922922973D-10  1.0465052713293D-09
     2  1.0000000000000D-02  4.5406340457590D-02 -2.5571319478447D-02
     3  2.0000000000000D-02  9.0719472833389D-02 -5.1000704773965D-02
     4  3.0000000000000D-02  1.3584707616226D-01 -7.6147752014039D-02
     5  4.0000000000000D-02  1.8069859154938D-01 -1.0087509735747D-01
     6  5.0000000000000D-02  2.2518607295912D-01 -1.2504988580632D-01
     7  6.0000000000000D-02  2.6922500215787D-01 -1.4854517932623D-01
     8  7.0000000000000D-02  3.1273505660493D-01 -1.7124128528921D-01
     9  8.0000000000000D-02  3.5564081971049D-01 -1.9302698729938D-01
    10  9.0000000000000D-02  3.9787242364518D-01 -2.1380066174556D-01
    11  1.0000000000000D-01  4.3936611578333D-01 -2.3347126492811D-01
    12  1.1000000000000D-01  4.8006474087884D-01 -2.5195917731274D-01
    13  1.2000000000000D-01  5.1991813219726D-01 -2.6919689334872D-01
    14  1.3000000000000D-01  5.5888340604458D-01 -2.8512954733034D-01
    15  1.4000000000000D-01  5.9692515542721D-01 -2.9971526795120D-01
    16  1.5000000000000D-01  6.3401553993308D-01 -3.1292535647513D-01
    17  1.6000000000000D-01  6.7013427032131D-01 -3.2474428579448D-01
    18  1.7000000000000D-01  7.0526848773205D-01 -3.3516952003778D-01
    19  1.8000000000000D-01  7.3941253885823D-01 -3.4421115679328D-01
    20  1.9000000000000D-01  7.7256764984052D-01 -3.5189139640116D-01
    21  2.0000000000000D-01  8.0474150303584D-01 -3.5824384510587D-01
    22  2.1000000000000D-01  8.3594772215189D-01 -3.6331266111980D-01
    23  2.2000000000000D-01  8.6620527251578D-01 -3.6715155480204D-01
    24  2.3000000000000D-01  8.9553778443981D-01 -3.6982265617205D-01
    25  2.4000000000000D-01  9.2397280874310D-01 -3.7139526483294D-01
    26  2.5000000000000D-01  9.5154101447232D-01 -3.7194449904660D-01
    27  2.6000000000000D-01  9.7827533972278D-01 -3.7154986216195D-01
    28  2.7000000000000D-01  1.0042101071820D+00 -3.7029374582832D-01
    29  2.8000000000000D-01  1.0293801165920D+00 -3.6825989041068D-01
    30  2.9000000000000D-01  1.0538197267433D+00 -3.6553182374973D-01
    31  3.0000000000000D-01  1.0775619398719D+00 -3.6219129986537D-01
    32  3.1000000000000D-01  1.1006375014184D+00 -3.5831675938063D-01
    33  3.2000000000000D-01  1.1230740280307D+00 -3.5398183334054D-01
    34  3.3000000000000D-01  1.1448951764469D+00 -3.4925391171561D-01
    35  3.4000000000000D-01  1.1661198654791D+00 -3.4419279721705D-01
    36  3.5000000000000D-01  1.1867615627458D+00 -3.3884946411535D-01
    37  3.6000000000000D-01  1.2068276470692D+00 -3.3326494055792D-01
    38  3.7000000000000D-01  1.2263188565732D+00 -3.2746933143517D-01
    39  3.8000000000000D-01  1.2452288315047D+00 -3.2148099716882D-01
    40  3.9000000000000D-01  1.2635437596539D+00 -3.1530590190576D-01
    41  4.0000000000000D-01  1.2812421310009D+00 -3.0893714252254D-01
    42  4.1000000000000D-01  1.2982946068580D+00 -3.0235466760155D-01
    43  4.2000000000000D-01  1.3146640073512D+00 -2.9552519315774D-01
    44  4.3000000000000D-01  1.3303054195850D+00 -2.8840231940493D-01
    45  4.4000000000000D-01  1.3451664272954D+00 -2.8092685028094D-01
    46  4.5000000000000D-01  1.3591874612328D+00 -2.7302731483631D-01
    47  4.6000000000000D-01  1.3723022679415D+00 -2.6462068696122D-01
    48  4.7000000000000D-01  1.3844384930458D+00 -2.5561329731513D-01
    49  4.8000000000000D-01  1.3955183736286D+00 -2.4590192876474D-01
    50  4.9000000000000D-01  1.4054595328154D+00 -2.3537508416111D-01
    51  5.0000000000000D-01  1.4141758682766D+00 -2.2391441292876D-01
    52  5.1000000000000D-01  1.4215785250503D+00 -2.1139628072644D-01
    53  5.2000000000000D-01  1.4275769418862D+00 -1.9769346440320D-01
    54  5.3000000000000D-01  1.4320799592282D+00 -1.8267695263746D-01
    55  5.4000000000000D-01  1.4349969760119D+00 -1.6621783103814D-01
    56  5.5000000000000D-01  1.4362391416620D+00 -1.4818922912838D-01
    57  5.6000000000000D-01  1.4357205690411D+00 -1.2846830553706D-01
    58  5.7000000000000D-01  1.4333595536439D+00 -1.0693824691679D-01
    59  5.8000000000000D-01  1.4290797840478D+00 -8.3490255590940D-02
    60  5.9000000000000D-01  1.4228115285312D+00 -5.8025500724253D-02
    61  6.0000000000000D-01  1.4144927828592D+00 -3.0457007911361D-02
    62  6.1000000000000D-01  1.4040703645070D+00 -7.1146248789739D-04
    63  6.2000000000000D-01  1.3915009390519D+00  3.1269097408846D-02
    64  6.3000000000000D-01  1.3767519650968D+00  6.5525720986563D-02
    65  6.4000000000000D-01  1.3598025449052D+00  1.0208113978889D-01
    66  6.5000000000000D-01  1.3406441689006D+00  1.4093853757924D-01
    67  6.6000000000000D-01  1.3192813433131D+00  1.8208051331634D-01
    68  6.7000000000000D-01  1.2957320915317D+00  2.2546825332154D-01
    69  6.8000000000000D-01  1.2700283211199D+00  2.7104092642936D-01
    70  6.9000000000000D-01  1.2422160499577D+00  3.1871531342375D-01
    71  7.0000000000000D-01  1.2123554865848D+00  3.6838567938737D-01
    72  7.1000000000000D-01  1.1805209614925D+00  4.1992389481314D-01
    73  7.2000000000000D-01  1.1468007078469D+00  4.7317980843463D-01
    74  7.3000000000000D-01  1.1112964918888D+00  5.2798187179172D-01
    75  7.4000000000000D-01  1.0741230950344D+00  5.8413801256765D-01
    76  7.5000000000000D-01  1.0354076514719D+00  6.4143675076988D-01
    77  7.6000000000000D-01  9.9528884677928D-01  6.9964854891122D-01
    78  7.7000000000000D-01  9.5391598477744D-01  7.5852738450905D-01
    79  7.8000000000000D-01  9.1144793143858D-01  8.1781253049997D-01
    80  7.9000000000000D-01  8.6805194618663D-01  8.7723052659827D-01
    81  8.0000000000000D-01  8.2390241233020D-01  9.3649732223575D-01
    82  8.1000000000000D-01  7.7917947963453D-01  9.9532056955381D-01
    83  8.2000000000000D-01  7.3406763316958D-01  1.0534020429739D+00
    84  8.3000000000000D-01  6.8875420352809D-01  1.1104401602111D+00
    85  8.4000000000000D-01  6.4342783429656D-01  1.1661325782121D+00
    86  8.5000000000000D-01  5.9827692326349D-01  1.2201788364197D+00
    87  8.6000000000000D-01  5.5348805425764D-01  1.2722830190136D+00
    88  8.7000000000000D-01  5.0924443671753D-01  1.3221564073496D+00
    89  8.8000000000000D-01  4.6572437009850D-01  1.3695200937306D+00
    90  8.9000000000000D-01  4.2309975002487D-01  1.4141075279000D+00
    91  9.0000000000000D-01  3.8153463269273D-01  1.4556669682345D+00
    92  9.1000000000000D-01  3.4118387342853D-01  1.4939638105427D+00
    93  9.2000000000000D-01  3.0219185451022D-01  1.5287827686313D+00
    94  9.3000000000000D-01  2.6469131639334D-01  1.5599298823372D+00
    95  9.4000000000000D-01  2.2880230531882D-01  1.5872343306064D+00
    96  9.5000000000000D-01  1.9463124898158D-01  1.6105500292992D+00
    97  9.6000000000000D-01  1.6227017048259D-01  1.6297569957817D+00
    98  9.7000000000000D-01  1.3179604920855D-01  1.6447624649451D+00
    99  9.8000000000000D-01  1.0327033559682D-01  1.6555017440744D+00
   100  9.9000000000000D-01  7.6738624970040D-02  1.6619387969109D+00
   101  1.0000000000000D+00  5.2230493786992D-02  1.6640665503037D+00
   102  1.0100000000000D+00  2.9759499741228D-02  1.6619069200286D+00
   103  1.0200000000000D+00  9.3233453290784D-03  1.6555105553728D+00
   104  1.0300000000000D+00 -9.0957975234695D-03  1.6449563054886D+00
   105  1.0400000000000D+00 -2.5530805963306D-02  1.6303504135073D+00
   106  1.0500000000000D+00 -4.0028973889163D-02  1.6118254475444D+00
   107  1.0600000000000D+00 -5.2651236628367D-02  1.5895389807334D+00
   108  1.0700000000000D+00 -6.3471262049997D-02  1.5636720351865D+00
   109  1.0800000000000D+00 -7.2574419102151D-02  1.5344273074307D+00
   110  1.0900000000000D+00 -8.0056636243442D-02  1.5020271954341D+00
   111  1.1000000000000D+00 -8.6023163415040D-02  1.4667116493841D+00
   112  1.1100000000000D+00 -9.0587252369897D-02  1.4287358704517D+00
   113  1.1200000000000D+00 -9.3868770973717D-02  1.3883678831975D+00
   114  1.1300000000000D+00 -9.5992767970782D-02  1.3458860088891D+00
   115  1.1400000000000D+00 -9.7088005131522D-02  1.3015762678261D+00
   116  1.1500000000000D+00 -9.7285474009196D-02  1.2557297394370D+00
   117  1.1600000000000D+00 -9.6716914664210D-02  1.2086399092510D+00
   118  1.1700000000000D+00 -9.5513353634792D-02  1.1606000318891D+00
   119  1.1800000000000D+00 -9.3803678071696D-02  1.1119005387603D+00
   120  1.1900000000000D+00 -9.1713262269113D-02  1.0628265181756D+00
   121  1.2000000000000D+00 -8.9362662554729D-02  1.0136552952369D+00
   122  1.2100000000000D+00 -8.6866395071107D-02  9.6465413671057D-01
   123  1.2200000000000D+00 -8.4331809974381D-02  9.1607810452318D-01
   124  1.2300000000000D+00 -8.1858074671894D-02  8.6816808013087D-01
   125  1.2400000000000D+00 -7.9535277026237D-02  8.2114897936721D-01
   126  1.2500000000000D+00 -7.7443657602831D-02  7.7522817442650D-01
   127  1.2600000000000D+00 -7.5652978922223D-02  7.3059413785857D-01
   128  1.2700000000000D+00 -7.4222037991519D-02  6.8741532077178D-01
   129  1.2800000000000D+00 -7.3198325560118D-02  6.4583927286000D-01
   130  1.2900000000000D+00 -7.2617834798468D-02  6.0599201064827D-01
   131  1.3000000000000D+00 -7.2505020201101D-02  5.6797763729807D-01
   132  1.3100000000000D+00 -7.2872904140106D-02  5.3187821176052D-01
   133  1.3200000000000D+00 -7.3723328609490D-02  4.9775386524435D-01
   134  1.3300000000000D+00 -7.5047347008256D-02  4.6564315856282D-01
   135  1.3400000000000D+00 -7.6825747920241D-02  4.3556366905910D-01
   136  1.3500000000000D+00 -7.9029703873830D-02  4.0751279754366D-01
   137  1.3600000000000D+00 -8.1621534017052D-02  3.8146877891231D-01
   138  1.3700000000000D+00 -8.4555568844953D-02  3.5739187862185D-01
   139  1.3800000000000D+00 -8.7779105773585D-02  3.3522575846407D-01
   140  1.3900000000000D+00 -9.1233439903651D-02  3.1489898728711D-01
   141  1.4000000000000D+00 -9.4854956561216D-02  2.9632667614145D-01
   142  1.4100000000000D+00 -9.8576269700774D-02  2.7941221310015D-01
   143  1.4200000000000D+00 -1.0232739021905D-01  2.6404907240714D-01
   144  1.4300000000000D+00 -1.0603690826683D-01  2.5012267320732D-01
   145  1.4400000000000D+00 -1.0963317291853D-01  2.3751226097114D-01
   146  1.4500000000000D+00 -1.1304545366955D-01  2.2609278692580D-01
   147  1.4600000000000D+00 -1.1620506673362D-01  2.1573675809643D-01
   148  1.4700000000000D+00 -1.1904645322442D-01  2.0631603658787D-01
   149  1.4800000000000D+00 -1.2150819128741D-01  1.9770355940625D-01
   150  1.4900000000000D+00 -1.2353393261328D-01  1.8977496223050D-01
   151  1.5000000000000D+00 -1.2507324733235D-01  1.8241008120752D-01
   152  1.5100000000000D+00 -1.2608236732080D-01  1.7549431360445D-01
   153  1.5200000000000D+00 -1.2652482476299D-01  1.6891984403754D-01
   154  1.5300000000000D+00 -1.2637194887112D-01  1.6258662657590D-01
   155  1.5400000000000D+00 -1.2560330284506D-01  1.5640340403045D-01
   156  1.5500000000000D+00 -1.2420688443731D-01  1.5028819019922D-01
   157  1.5600000000000D+00 -1.2217917162642D-01  1.4416844696660D-01
   158  1.5700000000000D+00 -1.1952549561081D-01  1.3798271926721D-01
   159  1.5800000000000D+00 -1.1626020355452D-01  1.3168176083251D-01
   160  1.5900000000000D+00 -1.1240678709086D-01  1.2522970062879D-01
   161  1.6000000000000D+00 -1.0799779830891D-01  1.1860471607443D-01
   162  1.6100000000000D+00 -1.0307428332280D-01  1.1179823255975D-01
   163  1.6200000000000D+00 -9.7685208861203D-02  1.0481432713191D-01
   164  1.6300000000000D+00 -9.1886806693587D-02  9.7669077921574D-02
   165  1.6400000000000D+00 -8.5741779732809D-02  9.0389610357868D-02
   166  1.6500000000000D+00 -7.9318430729616D-02  8.3013045201163D-02
   167  1.6600000000000D+00 -7.2689707535380D-02  7.5585298003743D-02
   168  1.6700000000000D+00 -6.5932184374563D-02  6.8159770680097D-02
   169  1.6800000000000D+00 -5.9124992157295D-02  6.0795952262089D-02
   170  1.6900000000000D+00 -5.2348712798421D-02  5.3557951502310D-02
   171  1.7000000000000D+00 -4.5684253658492D-02  4.6512985185237D-02
   172  1.7100000000000D+00 -3.9211715989241D-02  3.9729843324290D-02
   173  1.7200000000000D+00 -3.3009275746676D-02  3.3277358747853D-02
   174  1.7300000000000D+00 -2.7152088350696D-02  2.7222898787158D-02
   175  1.7400000000000D+00 -2.1711236985419D-02  2.1630908696269D-02
   176  1.7500000000000D+00 -1.6752733806098D-02  1.6561521106717D-02
   177  1.7600000000000D+00 -1.2338284135213D-02  1.2070459924452D-02
   178  1.7700000000000D+00 -8.5185459279958D-03  8.2036696417356D-03
   179  1.7800000000000D+00 -5.3297546535329D-03  4.9955663157141D-03
   180  1.7900000000000D+00 -2.8197730851160D-03  2.4836827079218D-03
   181  1.8000000000000D+00 -1.0502126696562D-03  7.0373543796784D-04
   182  1.8100000000000D+00 -2.0981617365969D-05 -3.4446677091677D-04
   183  1.8200000000000D+00  3.6498667014314D-04 -6.8862539069712D-04
   184  1.8300000000000D+00  2.7165170380457D-04 -4.4354174752680D-04
   185  1.8400000000000D+00  2.7442978569876D-05 -4.2892052497274D-05
   186  1.8500000000000D+00 -6.4780155355147D-05  9.9534041663327D-05
   187  1.8600000000000D+00 -2.5153951367610D-05  3.8092084630856D-05
   188  1.8700000000000D+00  1.1682735644655D-05 -1.8561983044546D-05
   189  1.8800000000000D+00  9.0393706252969D-06 -1.4252501885938D-05
   190  1.8900000000000D+00 -6.3330830050953D-07  1.2154067477748D-06
   191  1.9000000000000D+00 -9.0303338106568D-07  1.7330467071568D-06
   192  1.9100000000000D+00  0.0000000000000D+00  0.0000000000000D+00
   193  1.9200000000000D+00  0.0000000000000D+00  0.0000000000000D+00
   194  1.9300000000000D+00  0.0000000000000D+00  0.0000000000000D+00
   195  1.9400000000000D+00  0.0000000000000D+00  0.0000000000000D+00
   196  1.9500000000000D+00  0.0000000000000D+00  0.0000000000000D+00
   197  1.9600000000000D+00  0.0000000000000D+00  0.0000000000000D+00
   198  1.9700000000000D+00  0.0000000000000D+00  0.0000000000000D+00
   199  1.9800000000000D+00  0.0000000000000D+00  0.0000000000000D+00
   200  1.9900000000000D+00  0.0000000000000D+00  0.0000000000000D+00
   201  2.0000000000000D+00  0.0000000000000D+00  0.0000000000000D+00
   202  2.0100000000000D+00  0.0000000000000D+00  0.0000000000000D+00
   203  2.0200000000000D+00  0.0000000000000D+00  0.0000000000000D+00
   204  2.0300000000000D+00  0.0000000000000D+00  0.0000000000000D+00
   205  2.0400000000000D+00  0.0000000000000D+00  0.0000000000000D+00
   206  2.0500000000000D+00  0.0000000000000D+00  0.0000000000000D+00
   207  2.0600000000000D+00  0.0000000000000D+00  0.0000000000000D+00
   208  2.0700000000000D+00  0.0000000000000D+00  0.0000000000000D+00
   209  2.0800000000000D+00  0.0000000000000D+00  0.0000000000000D+00
   210  2.0900000000000D+00  0.0000000000000D+00  0.0000000000000D+00
   211  2.1000000000000D+00  0.0000000000000D+00  0.0000000000000D+00
   212  2.1100000000000D+00  0.0000000000000D+00  0.0000000000000D+00
   213  2.1200000000000D+00  0.0000000000000D+00  0.0000000000000D+00
   214  2.1300000000000D+00  0.0000000000000D+00  0.0000000000000D+00
   215  2.1400000000000D+00  0.0000000000000D+00  0.0000000000000D+00
   216  2.1500000000000D+00  0.0000000000000D+00  0.0000000000000D+00
   217  2.1600000000000D+00  0.0000000000000D+00  0.0000000000000D+00
   218  2.1700000000000D+00  0.0000000000000D+00  0.0000000000000D+00
   219  2.1800000000000D+00  0.0000000000000D+00  0.0000000000000D+00
   220  2.1900000000000D+00  0.0000000000000D+00  0.0000000000000D+00
   221  2.2000000000000D+00  0.0000000000000D+00  0.0000000000000D+00
   222  2.2100000000000D+00  0.0000000000000D+00  0.0000000000000D+00
   223  2.2200000000000D+00  0.0000000000000D+00  0.0000000000000D+00
   224  2.2300000000000D+00  0.0000000000000D+00  0.0000000000000D+00
   225  2.2400000000000D+00  0.0000000000000D+00  0.0000000000000D+00
   226  2.2500000000000D+00  0.0000000000000D+00  0.0000000000000D+00
   227  2.2600000000000D+00  0.0000000000000D+00  0.0000000000000D+00
   228  2.2700000000000D+00  0.0000000000000D+00  0.0000000000000D+00
   229  2.2800000000000D+00  0.0000000000000D+00  0.0000000000000D+00
   230  2.2900000000000D+00  0.0000000000000D+00  0.0000000000000D+00
   231  2.3000000000000D+00  0.0000000000000D+00  0.0000000000000D+00
   232  2.3100000000000D+00  0.0000000000000D+00  0.0000000000000D+00
   233  2.3200000000000D+00  0.0000000000000D+00  0.0000000000000D+00
   234  2.3300000000000D+00  0.0000000000000D+00  0.0000000000000D+00
   235  2.3400000000000D+00  0.0000000000000D+00  0.0000000000000D+00
   236  2.3500000000000D+00  0.0000000000000D+00  0.0000000000000D+00
   237  2.3600000000000D+00  0.0000000000000D+00  0.0000000000000D+00
   238  2.3700000000000D+00  0.0000000000000D+00  0.0000000000000D+00
   239  2.3800000000000D+00  0.0000000000000D+00  0.0000000000000D+00
   240  2.3900000000000D+00  0.0000000000000D+00  0.0000000000000D+00
   241  2.4000000000000D+00  0.0000000000000D+00  0.0000000000000D+00
   242  2.4100000000000D+00  0.0000000000000D+00  0.0000000000000D+00
   243  2.4200000000000D+00  0.0000000000000D+00  0.0000000000000D+00
   244  2.4300000000000D+00  0.0000000000000D+00  0.0000000000000D+00
   245  2.4400000000000D+00  0.0000000000000D+00  0.0000000000000D+00
   246  2.4500000000000D+00  0.0000000000000D+00  0.0000000000000D+00
   247  2.4600000000000D+00  0.0000000000000D+00  0.0000000000000D+00
   248  2.4700000000000D+00  0.0000000000000D+00  0.0000000000000D+00
   249  2.4800000000000D+00  0.0000000000000D+00  0.0000000000000D+00
   250  2.4900000000000D+00  0.0000000000000D+00  0.0000000000000D+00
   251  2.5000000000000D+00  0.0000000000000D+00  0.0000000000000D+00
   252  2.5100000000000D+00  0.0000000000000D+00  0.0000000000000D+00
   253  2.5200000000000D+00  0.0000000000000D+00  0.0000000000000D+00
   254  2.5300000000000D+00  0.0000000000000D+00  0.0000000000000D+00
   255  2.5400000000000D+00  0.0000000000000D+00  0.0000000000000D+00
   256  2.5500000000000D+00  0.0000000000000D+00  0.0000000000000D+00
   257  2.5600000000000D+00  0.0000000000000D+00  0.0000000000000D+00
   258  2.5700000000000D+00  0.0000000000000D+00  0.0000000000000D+00
   259  2.5800000000000D+00  0.0000000000000D+00  0.0000000000000D+00
   260  2.5900000000000D+00  0.0000000000000D+00  0.0000000000000D+00
   261  2.6000000000000D+00  0.0000000000000D+00  0.0000000000000D+00
   262  2.6100000000000D+00  0.0000000000000D+00  0.0000000000000D+00
   263  2.6200000000000D+00  0.0000000000000D+00  0.0000000000000D+00
   264  2.6300000000000D+00  0.0000000000000D+00  0.0000000000000D+00
   265  2.6400000000000D+00  0.0000000000000D+00  0.0000000000000D+00
   266  2.6500000000000D+00  0.0000000000000D+00  0.0000000000000D+00
   267  2.6600000000000D+00  0.0000000000000D+00  0.0000000000000D+00
   268  2.6700000000000D+00  0.0000000000000D+00  0.0000000000000D+00
   269  2.6800000000000D+00  0.0000000000000D+00  0.0000000000000D+00
   270  2.6900000000000D+00  0.0000000000000D+00  0.0000000000000D+00
   271  2.7000000000000D+00  0.0000000000000D+00  0.0000000000000D+00
   272  2.7100000000000D+00  0.0000000000000D+00  0.0000000000000D+00
   273  2.7200000000000D+00  0.0000000000000D+00  0.0000000000000D+00
   274  2.7300000000000D+00  0.0000000000000D+00  0.0000000000000D+00
   275  2.7400000000000D+00  0.0000000000000D+00  0.0000000000000D+00
   276  2.7500000000000D+00  0.0000000000000D+00  0.0000000000000D+00
   277  2.7600000000000D+00  0.0000000000000D+00  0.0000000000000D+00
   278  2.7700000000000D+00  0.0000000000000D+00  0.0000000000000D+00
   279  2.7800000000000D+00  0.0000000000000D+00  0.0000000000000D+00
   280  2.7900000000000D+00  0.0000000000000D+00  0.0000000000000D+00
   281  2.8000000000000D+00  0.0000000000000D+00  0.0000000000000D+00
   282  2.8100000000000D+00  0.0000000000000D+00  0.0000000000000D+00
   283  2.8200000000000D+00  0.0000000000000D+00  0.0000000000000D+00
   284  2.8300000000000D+00  0.0000000000000D+00  0.0000000000000D+00
   285  2.8400000000000D+00  0.0000000000000D+00  0.0000000000000D+00
   286  2.8500000000000D+00  0.0000000000000D+00  0.0000000000000D+00
   287  2.8600000000000D+00  0.0000000000000D+00  0.0000000000000D+00
   288  2.8700000000000D+00  0.0000000000000D+00  0.0000000000000D+00
   289  2.8800000000000D+00  0.0000000000000D+00  0.0000000000000D+00
   290  2.8900000000000D+00  0.0000000000000D+00  0.0000000000000D+00
   291  2.9000000000000D+00  0.0000000000000D+00  0.0000000000000D+00
   292  2.9100000000000D+00  0.0000000000000D+00  0.0000000000000D+00
   293  2.9200000000000D+00  0.0000000000000D+00  0.0000000000000D+00
   294  2.9300000000000D+00  0.0000000000000D+00  0.0000000000000D+00
   295  2.9400000000000D+00  0.0000000000000D+00  0.0000000000000D+00
   296  2.9500000000000D+00  0.0000000000000D+00  0.0000000000000D+00
   297  2.9600000000000D+00  0.0000000000000D+00  0.0000000000000D+00
   298  2.9700000000000D+00  0.0000000000000D+00  0.0000000000000D+00
   299  2.9800000000000D+00  0.0000000000000D+00  0.0000000000000D+00
   300  2.9900000000000D+00  0.0000000000000D+00  0.0000000000000D+00
   301  3.0000000000000D+00  0.0000000000000D+00  0.0000000000000D+00
   302  3.0100000000000D+00  0.0000000000000D+00  0.0000000000000D+00
   303  3.0200000000000D+00  0.0000000000000D+00  0.0000000000000D+00
   304  3.0300000000000D+00  0.0000000000000D+00  0.0000000000000D+00
   305  3.0400000000000D+00  0.0000000000000D+00  0.0000000000000D+00
   306  3.0500000000000D+00  0.0000000000000D+00  0.0000000000000D+00
   307  3.0600000000000D+00  0.0000000000000D+00  0.0000000000000D+00
   308  3.0700000000000D+00  0.0000000000000D+00  0.0000000000000D+00
   309  3.0800000000000D+00  0.0000000000000D+00  0.0000000000000D+00
   310  3.0900000000000D+00  0.0000000000000D+00  0.0000000000000D+00
   311  3.1000000000000D+00  0.0000000000000D+00  0.0000000000000D+00
   312  3.1100000000000D+00  0.0000000000000D+00  0.0000000000000D+00
   313  3.1200000000000D+00  0.0000000000000D+00  0.0000000000000D+00
   314  3.1300000000000D+00  0.0000000000000D+00  0.0000000000000D+00
   315  3.1400000000000D+00  0.0000000000000D+00  0.0000000000000D+00
   316  3.1500000000000D+00  0.0000000000000D+00  0.0000000000000D+00
   317  3.1600000000000D+00  0.0000000000000D+00  0.0000000000000D+00
   318  3.1700000000000D+00  0.0000000000000D+00  0.0000000000000D+00
   319  3.1800000000000D+00  0.0000000000000D+00  0.0000000000000D+00
   320  3.1900000000000D+00  0.0000000000000D+00  0.0000000000000D+00
   321  3.2000000000000D+00  0.0000000000000D+00  0.0000000000000D+00
   322  3.2100000000000D+00  0.0000000000000D+00  0.0000000000000D+00
   323  3.2200000000000D+00  0.0000000000000D+00  0.0000000000000D+00
   324  3.2300000000000D+00  0.0000000000000D+00  0.0000000000000D+00
   325  3.2400000000000D+00  0.0000000000000D+00  0.0000000000000D+00
   326  3.2500000000000D+00  0.0000000000000D+00  0.0000000000000D+00
   327  3.2600000000000D+00  0.0000000000000D+00  0.0000000000000D+00
   328  3.2700000000000D+00  0.0000000000000D+00  0.0000000000000D+00
   329  3.2800000000000D+00  0.0000000000000D+00  0.0000000000000D+00
   330  3.2900000000000D+00  0.0000000000000D+00  0.0000000000000D+00
   331  3.3000000000000D+00  0.0000000000000D+00  0.0000000000000D+00
   332  3.3100000000000D+00  0.0000000000000D+00  0.0000000000000D+00
   333  3.3200000000000D+00  0.0000000000000D+00  0.0000000000000D+00
   334  3.3300000000000D+00  0.0000000000000D+00  0.0000000000000D+00
   335  3.3400000000000D+00  0.0000000000000D+00  0.0000000000000D+00
   336  3.3500000000000D+00  0.0000000000000D+00  0.0000000000000D+00
   337  3.3600000000000D+00  0.0000000000000D+00  0.0000000000000D+00
   338  3.3700000000000D+00  0.0000000000000D+00  0.0000000000000D+00
   339  3.3800000000000D+00  0.0000000000000D+00  0.0000000000000D+00
   340  3.3900000000000D+00  0.0000000000000D+00  0.0000000000000D+00
   341  3.4000000000000D+00  0.0000000000000D+00  0.0000000000000D+00
   342  3.4100000000000D+00  0.0000000000000D+00  0.0000000000000D+00
   343  3.4200000000000D+00  0.0000000000000D+00  0.0000000000000D+00
   344  3.4300000000000D+00  0.0000000000000D+00  0.0000000000000D+00
   345  3.4400000000000D+00  0.0000000000000D+00  0.0000000000000D+00
   346  3.4500000000000D+00  0.0000000000000D+00  0.0000000000000D+00
   347  3.4600000000000D+00  0.0000000000000D+00  0.0000000000000D+00
   348  3.4700000000000D+00  0.0000000000000D+00  0.0000000000000D+00
   349  3.4800000000000D+00  0.0000000000000D+00  0.0000000000000D+00
   350  3.4900000000000D+00  0.0000000000000D+00  0.0000000000000D+00
   351  3.5000000000000D+00  0.0000000000000D+00  0.0000000000000D+00
   352  3.5100000000000D+00  0.0000000000000D+00  0.0000000000000D+00
   353  3.5200000000000D+00  0.0000000000000D+00  0.0000000000000D+00
   354  3.5300000000000D+00  0.0000000000000D+00  0.0000000000000D+00
   355  3.5400000000000D+00  0.0000000000000D+00  0.0000000000000D+00
   356  3.5500000000000D+00  0.0000000000000D+00  0.0000000000000D+00
   357  3.5600000000000D+00  0.0000000000000D+00  0.0000000000000D+00
   358  3.5700000000000D+00  0.0000000000000D+00  0.0000000000000D+00
   359  3.5800000000000D+00  0.0000000000000D+00  0.0000000000000D+00
   360  3.5900000000000D+00  0.0000000000000D+00  0.0000000000000D+00
   361  3.6000000000000D+00  0.0000000000000D+00  0.0000000000000D+00
   362  3.6100000000000D+00  0.0000000000000D+00  0.0000000000000D+00
   363  3.6200000000000D+00  0.0000000000000D+00  0.0000000000000D+00
   364  3.6300000000000D+00  0.0000000000000D+00  0.0000000000000D+00
   365  3.6400000000000D+00  0.0000000000000D+00  0.0000000000000D+00
   366  3.6500000000000D+00  0.0000000000000D+00  0.0000000000000D+00
   367  3.6600000000000D+00  0.0000000000000D+00  0.0000000000000D+00
   368  3.6700000000000D+00  0.0000000000000D+00  0.0000000000000D+00
   369  3.6800000000000D+00  0.0000000000000D+00  0.0000000000000D+00
   370  3.6900000000000D+00  0.0000000000000D+00  0.0000000000000D+00
   371  3.7000000000000D+00  0.0000000000000D+00  0.0000000000000D+00
   372  3.7100000000000D+00  0.0000000000000D+00  0.0000000000000D+00
   373  3.7200000000000D+00  0.0000000000000D+00  0.0000000000000D+00
   374  3.7300000000000D+00  0.0000000000000D+00  0.0000000000000D+00
   375  3.7400000000000D+00  0.0000000000000D+00  0.0000000000000D+00
   376  3.7500000000000D+00  0.0000000000000D+00  0.0000000000000D+00
   377  3.7600000000000D+00  0.0000000000000D+00  0.0000000000000D+00
   378  3.7700000000000D+00  0.0000000000000D+00  0.0000000000000D+00
   379  3.7800000000000D+00  0.0000000000000D+00  0.0000000000000D+00
   380  3.7900000000000D+00  0.0000000000000D+00  0.0000000000000D+00
   381  3.8000000000000D+00  0.0000000000000D+00  0.0000000000000D+00
   382  3.8100000000000D+00  0.0000000000000D+00  0.0000000000000D+00
   383  3.8200000000000D+00  0.0000000000000D+00  0.0000000000000D+00
   384  3.8300000000000D+00  0.0000000000000D+00  0.0000000000000D+00
   385  3.8400000000000D+00  0.0000000000000D+00  0.0000000000000D+00
   386  3.8500000000000D+00  0.0000000000000D+00  0.0000000000000D+00
   387  3.8600000000000D+00  0.0000000000000D+00  0.0000000000000D+00
   388  3.8700000000000D+00  0.0000000000000D+00  0.0000000000000D+00
   389  3.8800000000000D+00  0.0000000000000D+00  0.0000000000000D+00
   390  3.8900000000000D+00  0.0000000000000D+00  0.0000000000000D+00
   391  3.9000000000000D+00  0.0000000000000D+00  0.0000000000000D+00
   392  3.9100000000000D+00  0.0000000000000D+00  0.0000000000000D+00
   393  3.9200000000000D+00  0.0000000000000D+00  0.0000000000000D+00
   394  3.9300000000000D+00  0.0000000000000D+00  0.0000000000000D+00
   395  3.9400000000000D+00  0.0000000000000D+00  0.0000000000000D+00
   396  3.9500000000000D+00  0.0000000000000D+00  0.0000000000000D+00
   397  3.9600000000000D+00  0.0000000000000D+00  0.0000000000000D+00
   398  3.9700000000000D+00  0.0000000000000D+00  0.0000000000000D+00
   399  3.9800000000000D+00  0.0000000000000D+00  0.0000000000000D+00
   400  3.9900000000000D+00  0.0000000000000D+00  0.0000000000000D+00
   401  4.0000000000000D+00  0.0000000000000D+00  0.0000000000000D+00
   402  4.0100000000000D+00  0.0000000000000D+00  0.0000000000000D+00
   403  4.0200000000000D+00  0.0000000000000D+00  0.0000000000000D+00
   404  4.0300000000000D+00  0.0000000000000D+00  0.0000000000000D+00
   405  4.0400000000000D+00  0.0000000000000D+00  0.0000000000000D+00
   406  4.0500000000000D+00  0.0000000000000D+00  0.0000000000000D+00
   407  4.0600000000000D+00  0.0000000000000D+00  0.0000000000000D+00
   408  4.0700000000000D+00  0.0000000000000D+00  0.0000000000000D+00
   409  4.0800000000000D+00  0.0000000000000D+00  0.0000000000000D+00
   410  4.0900000000000D+00  0.0000000000000D+00  0.0000000000000D+00
   411  4.1000000000000D+00  0.0000000000000D+00  0.0000000000000D+00
   412  4.1100000000000D+00  0.0000000000000D+00  0.0000000000000D+00
   413  4.1200000000000D+00  0.0000000000000D+00  0.0000000000000D+00
   414  4.1300000000000D+00  0.0000000000000D+00  0.0000000000000D+00
   415  4.1400000000000D+00  0.0000000000000D+00  0.0000000000000D+00
   416  4.1500000000000D+00  0.0000000000000D+00  0.0000000000000D+00
   417  4.1600000000000D+00  0.0000000000000D+00  0.0000000000000D+00
   418  4.1700000000000D+00  0.0000000000000D+00  0.0000000000000D+00
   419  4.1800000000000D+00  0.0000000000000D+00  0.0000000000000D+00
   420  4.1900000000000D+00  0.0000000000000D+00  0.0000000000000D+00
   421  4.2000000000000D+00  0.0000000000000D+00  0.0000000000000D+00
   422  4.2100000000000D+00  0.0000000000000D+00  0.0000000000000D+00