Pd    ONCVPSP-3.3.0  r_core=   1.41052   1.46191   1.55175
     46.0000     18.0000      220408    zatom,zion,pspd
     8       2   2     4   600     0    pspcod,pspxc,lmax,lloc,mmax,r2well
  5.99000000  0.00000000  0.00000000    rchrg fchrg qchrg
     2     2     2     0     0    nproj
     1     1           extension_switch
   0                         8.0790425836713D+00 -1.8945971783652D+00
     1  0.0000000000000D+00 -9.4420582463783D-11 -9.1477314612121D-10
     2  1.0000000000000D-02  6.5933691059546D-02 -5.5953975861420D-02
     3  2.0000000000000D-02  1.3173402641590D-01 -1.1176806564275D-01
     4  3.0000000000000D-02  1.9726810639302D-01 -1.6730157946674D-01
     5  4.0000000000000D-02  2.6240394056414D-01 -2.2241223862793D-01
     6  5.0000000000000D-02  3.2701089538828D-01 -2.7695542785919D-01
     7  6.0000000000000D-02  3.9096013352814D-01 -3.3078350296015D-01
     8  7.0000000000000D-02  4.5412504218850D-01 -3.8374517115717D-01
     9  8.0000000000000D-02  5.1638164790829D-01 -4.3568496065005D-01
    10  9.0000000000000D-02  5.7760901535605D-01 -4.8644279467430D-01
    11  1.0000000000000D-01  6.3768962781596D-01 -5.3585368408376D-01
    12  1.1000000000000D-01  6.9650974720856D-01 -5.8374755094757D-01
    13  1.2000000000000D-01  7.5395975166558D-01 -6.2994919397621D-01
    14  1.3000000000000D-01  8.0993444887044D-01 -6.7427840475956D-01
    15  1.4000000000000D-01  8.6433336358284D-01 -7.1655024183580D-01
    16  1.5000000000000D-01  9.1706099798549D-01 -7.5657546753385D-01
    17  1.6000000000000D-01  9.6802706372249D-01 -7.9416115036636D-01
    18  1.7000000000000D-01  1.0171466847379D+00 -8.2911143351820D-01
    19  1.8000000000000D-01  1.0643405702701D+00 -8.6122846770039D-01
    20  1.9000000000000D-01  1.1095351576078D+00 -8.9031350434777D-01
    21  2.0000000000000D-01  1.1526627244662D+00 -9.1616814285366D-01
    22  2.1000000000000D-01  1.1936614710945D+00 -9.3859572328332D-01
    23  2.2000000000000D-01  1.2324755724750D+00 -9.5740285381489D-01
    24  2.3000000000000D-01  1.2690552012190D+00 -9.7240106004605D-01
    25  2.4000000000000D-01  1.3033565220000D+00 -9.8340854130281D-01
    26  2.5000000000000D-01  1.3353416585946D+00 -9.9025201721600D-01
    27  2.6000000000000D-01  1.3649786348130D+00 -9.9276864611387D-01
    28  2.7000000000000D-01  1.3922412908055D+00 -9.9080799523821D-01
    29  2.8000000000000D-01  1.4171091764128D+00 -9.8423404144478D-01
    30  2.9000000000000D-01  1.4395674233979D+00 -9.7292717991578D-01
    31  3.0000000000000D-01  1.4596065985430D+00 -9.5678621750794D-01
    32  3.1000000000000D-01  1.4772225397208D+00 -9.3573032669984D-01
    33  3.2000000000000D-01  1.4924161771540D+00 -9.0970093569601D-01
    34  3.3000000000000D-01  1.5051933421570D+00 -8.7866353010419D-01
    35  3.4000000000000D-01  1.5155645657088D+00 -8.4260934173142D-01
    36  3.5000000000000D-01  1.5235448692370D+00 -8.0155690045010D-01
    37  3.6000000000000D-01  1.5291535499982D+00 -7.5555342576380D-01
    38  3.7000000000000D-01  1.5324139634189D+00 -7.0467603565927D-01
    39  3.8000000000000D-01  1.5333533047152D+00 -6.4903275155424D-01
    40  3.9000000000000D-01  1.5320023920389D+00 -5.8876327963847D-01
    41  4.0000000000000D-01  1.5283954533005D+00 -5.2403955064395D-01
    42  4.1000000000000D-01  1.5225699187019D+00 -4.5506600205859D-01
    43  4.2000000000000D-01  1.5145662208673D+00 -3.8207958899842D-01
    44  4.3000000000000D-01  1.5044276043009D+00 -3.0534951235943D-01
    45  4.4000000000000D-01  1.4921999457149D+00 -2.2517665545972D-01
    46  4.5000000000000D-01  1.4779315865721D+00 -1.4189272313201D-01
    47  4.6000000000000D-01  1.4616731789733D+00 -5.5859080112707D-02
    48  4.7000000000000D-01  1.4434775457876D+00  3.2534711434997D-02
    49  4.8000000000000D-01  1.4233995556887D+00  1.2287265235313D-01
    50  4.9000000000000D-01  1.4014960135075D+00  2.1471435884711D-01
    51  5.0000000000000D-01  1.3778255660631D+00  3.0759739760261D-01
    52  5.1000000000000D-01  1.3524486233735D+00  4.0103989137338D-01
    53  5.2000000000000D-01  1.3254272948957D+00  4.9454337967794D-01
    54  5.3000000000000D-01  1.2968253401897D+00  5.8759591625223D-01
    55  5.4000000000000D-01  1.2667081331562D+00  6.7967538202683D-01
    56  5.5000000000000D-01  1.2351426387590D+00  7.7025298966490D-01
    57  5.6000000000000D-01  1.2021974009186D+00  8.5879695314621D-01
    58  5.7000000000000D-01  1.1679425400533D+00  9.4477629353301D-01
    59  5.8000000000000D-01  1.1324497585493D+00  1.0276647499500D+00
    60  5.9000000000000D-01  1.0957923522700D+00  1.1069447629614D+00
    61  6.0000000000000D-01  1.0580452260619D+00  1.1821114959750D+00
    62  6.1000000000000D-01  1.0192849110896D+00  1.2526768590580D+00
    63  6.2000000000000D-01  9.7958958173205D-01  1.3181734986311D+00
    64  6.3000000000000D-01  9.3903906969969D-01  1.3781587159436D+00
    65  6.4000000000000D-01  8.9771487299133D-01  1.4322182770201D+00
    66  6.5000000000000D-01  8.5570015729627D-01  1.4799700769315D+00
    67  6.6000000000000D-01  8.1307974746828D-01  1.5210676217801D+00
    68  6.7000000000000D-01  7.6994010674899D-01  1.5552032927036D+00
    69  6.8000000000000D-01  7.2636930150132D-01  1.5821113574890D+00
    70  6.9000000000000D-01  6.8245694932979D-01  1.6015706970545D+00
    71  7.0000000000000D-01  6.3829414860934D-01  1.6134072160774D+00
    72  7.1000000000000D-01  5.9397338762147D-01  1.6174959094171D+00
    73  7.2000000000000D-01  5.4958843170009D-01  1.6137625586769D+00
    74  7.3000000000000D-01  5.0523418702232D-01  1.6021850362693D+00
    75  7.4000000000000D-01  4.6100653993506D-01  1.5827941976350D+00
    76  7.5000000000000D-01  4.1700217098767D-01  1.5556743458201D+00
    77  7.6000000000000D-01  3.7331834313990D-01  1.5209632563937D+00
    78  7.7000000000000D-01  3.3005266392992D-01  1.4788517546509D+00
    79  7.8000000000000D-01  2.8730282171620D-01  1.4295828411675D+00
    80  7.9000000000000D-01  2.4516629644765D-01  1.3734503660143D+00
    81  8.0000000000000D-01  2.0374004576160D-01  1.3107972562409D+00
    82  8.1000000000000D-01  1.6312016755869D-01  1.2420133055815D+00
    83  8.2000000000000D-01  1.2340154055110D-01  1.1675325396639D+00
    84  8.3000000000000D-01  8.4677444623696D-02  1.0878301742701D+00
    85  8.4000000000000D-01  4.7039163180966D-02  1.0034191883686D+00
    86  8.5000000000000D-01  1.0575569972925D-02  9.1484653765884D-01
    87  8.6000000000000D-01 -2.4627296803222D-02  8.2268903820278D-01
    88  8.7000000000000D-01 -5.8486670046737D-02  7.2754895331879D-01
    89  8.8000000000000D-01 -9.0923495605647D-02  6.3004932024345D-01
    90  8.9000000000000D-01 -1.2186287687136D-01  5.3082905608432D-01
    91  9.0000000000000D-01 -1.5123451835126D-01  4.3053788525898D-01
    92  9.1000000000000D-01 -1.7897316429135D-01  3.2983113290762D-01
    93  9.2000000000000D-01 -2.0501902829438D-01  2.2936443065071D-01
    94  9.3000000000000D-01 -2.2931820979209D-01  1.2978838251244D-01
    95  9.4000000000000D-01 -2.5182309318453D-01  3.1743239824475D-02
    96  9.5000000000000D-01 -2.7249272545714D-01 -6.4146365553460D-02
    97  9.6000000000000D-01 -2.9129316812865D-01 -1.5727658033433D-01
    98  9.7000000000000D-01 -3.0819781946709D-01 -2.4706933229653D-01
    99  9.8000000000000D-01 -3.2318770304562D-01 -3.3297712821821D-01
   100  9.9000000000000D-01 -3.3625171888444D-01 -4.1448760073136D-01
   101  1.0000000000000D+00 -3.4738685364563D-01 -4.9112775950761D-01
   102  1.0100000000000D+00 -3.5659834661072D-01 -5.6246790458707D-01
   103  1.0200000000000D+00 -3.6389980847218D-01 -6.2812516249135D-01
   104  1.0300000000000D+00 -3.6931329032745D-01 -6.8776660919749D-01
   105  1.0400000000000D+00 -3.7286930060665D-01 -7.4111194737550D-01
   106  1.0500000000000D+00 -3.7460676812130D-01 -7.8793570979529D-01
   107  1.0600000000000D+00 -3.7457294983135D-01 -8.2806896489471D-01
   108  1.0700000000000D+00 -3.7282328240115D-01 -8.6140050525275D-01
   109  1.0800000000000D+00 -3.6942117712526D-01 -8.8787750487897D-01
   110  1.0900000000000D+00 -3.6443775825353D-01 -9.0750563579860D-01
   111  1.1000000000000D+00 -3.5795154532015D-01 -9.2034864029875D-01
   112  1.1100000000000D+00 -3.5004808057357D-01 -9.2652736028144D-01
   113  1.1200000000000D+00 -3.4081950314191D-01 -9.2621823073419D-01
   114  1.1300000000000D+00 -3.3036407208060D-01 -9.1965124966721D-01
   115  1.1400000000000D+00 -3.1878564093180D-01 -9.0710744190815D-01
   116  1.1500000000000D+00 -3.0619308699426D-01 -8.8891584014107D-01
   117  1.1600000000000D+00 -2.9269969893327D-01 -8.6545001115401D-01
   118  1.1700000000000D+00 -2.7842252680258D-01 -8.3712415997410D-01
   119  1.1800000000000D+00 -2.6348169897896D-01 -8.0438884916256D-01
   120  1.1900000000000D+00 -2.4799971094687D-01 -7.6772637529710D-01
   121  1.2000000000000D+00 -2.3210069119429D-01 -7.2764584826267D-01
   122  1.2100000000000D+00 -2.1590964970972D-01 -6.8467802148513D-01
   123  1.2200000000000D+00 -1.9955171498101D-01 -6.3936992589886D-01
   124  1.2300000000000D+00 -1.8315136551212D-01 -5.9227936191775D-01
   125  1.2400000000000D+00 -1.6683166202265D-01 -5.4396930547749D-01
   126  1.2500000000000D+00 -1.5071348667057D-01 -4.9500228640890D-01
   127  1.2600000000000D+00 -1.3491479563973D-01 -4.4593479792080D-01
   128  1.2700000000000D+00 -1.1954989140016D-01 -3.9731179588407D-01
   129  1.2800000000000D+00 -1.0472872099605D-01 -3.4966134745062D-01
   130  1.2900000000000D+00 -9.0556206435848D-02 -3.0348948640657D-01
   131  1.3000000000000D+00 -7.7131613154236D-02 -2.5927533172772D-01
   132  1.3100000000000D+00 -6.4547962420820D-02 -2.1746652526971D-01
   133  1.3200000000000D+00 -5.2891492905583D-02 -1.7847503862565D-01
   134  1.3300000000000D+00 -4.2241176662027D-02 -1.4267339961013D-01
   135  1.3400000000000D+00 -3.2668294331617D-02 -1.1039138487462D-01
   136  1.3500000000000D+00 -2.4236073414196D-02 -8.1913216246719D-02
   137  1.3600000000000D+00 -1.6999393969146D-02 -5.7475303244732D-02
   138  1.3700000000000D+00 -1.1008759991771D-02 -3.7279080384585D-02
   139  1.3800000000000D+00 -6.2776819003843D-03 -2.1375958030698D-02
   140  1.3900000000000D+00 -2.8616057146235D-03 -9.9457715577936D-03
   141  1.4000000000000D+00 -8.7774572029693D-04 -3.3836963278102D-03
   142  1.4100000000000D+00 -8.0191884413685D-05 -7.1709470304305D-04
   143  1.4200000000000D+00  5.4843856313982D-05 -1.5185451158647D-05
   144  1.4300000000000D+00 -1.2063906783892D-05 -1.1367755554324D-05
   145  1.4400000000000D+00 -1.5541456013026D-05 -2.1344702957060D-05
   146  1.4500000000000D+00  3.3431120080345D-06  1.5318921813163D-06
   147  1.4600000000000D+00  1.2449071376790D-06  8.9551344456505D-07
   148  1.4700000000000D+00  1.7514788361393D-07  1.8412882295322D-06
   149  1.4800000000000D+00  0.0000000000000D+00  0.0000000000000D+00
   150  1.4900000000000D+00  0.0000000000000D+00  0.0000000000000D+00
   151  1.5000000000000D+00  0.0000000000000D+00  0.0000000000000D+00
   152  1.5100000000000D+00  0.0000000000000D+00  0.0000000000000D+00
   153  1.5200000000000D+00  0.0000000000000D+00  0.0000000000000D+00
   154  1.5300000000000D+00  0.0000000000000D+00  0.0000000000000D+00
   155  1.5400000000000D+00  0.0000000000000D+00  0.0000000000000D+00
   156  1.5500000000000D+00  0.0000000000000D+00  0.0000000000000D+00
   157  1.5600000000000D+00  0.0000000000000D+00  0.0000000000000D+00
   158  1.5700000000000D+00  0.0000000000000D+00  0.0000000000000D+00
   159  1.5800000000000D+00  0.0000000000000D+00  0.0000000000000D+00
   160  1.5900000000000D+00  0.0000000000000D+00  0.0000000000000D+00
   161  1.6000000000000D+00  0.0000000000000D+00  0.0000000000000D+00
   162  1.6100000000000D+00  0.0000000000000D+00  0.0000000000000D+00
   163  1.6200000000000D+00  0.0000000000000D+00  0.0000000000000D+00
   164  1.6300000000000D+00  0.0000000000000D+00  0.0000000000000D+00
   165  1.6400000000000D+00  0.0000000000000D+00  0.0000000000000D+00
   166  1.6500000000000D+00  0.0000000000000D+00  0.0000000000000D+00
   167  1.6600000000000D+00  0.0000000000000D+00  0.0000000000000D+00
   168  1.6700000000000D+00  0.0000000000000D+00  0.0000000000000D+00
   169  1.6800000000000D+00  0.0000000000000D+00  0.0000000000000D+00
   170  1.6900000000000D+00  0.0000000000000D+00  0.0000000000000D+00
   171  1.7000000000000D+00  0.0000000000000D+00  0.0000000000000D+00
   172  1.7100000000000D+00  0.0000000000000D+00  0.0000000000000D+00
   173  1.7200000000000D+00  0.0000000000000D+00  0.0000000000000D+00
   174  1.7300000000000D+00  0.0000000000000D+00  0.0000000000000D+00
   175  1.7400000000000D+00  0.0000000000000D+00  0.0000000000000D+00
   176  1.7500000000000D+00  0.0000000000000D+00  0.0000000000000D+00
   177  1.7600000000000D+00  0.0000000000000D+00  0.0000000000000D+00
   178  1.7700000000000D+00  0.0000000000000D+00  0.0000000000000D+00
   179  1.7800000000000D+00  0.0000000000000D+00  0.0000000000000D+00
   180  1.7900000000000D+00  0.0000000000000D+00  0.0000000000000D+00
   181  1.8000000000000D+00  0.0000000000000D+00  0.0000000000000D+00
   182  1.8100000000000D+00  0.0000000000000D+00  0.0000000000000D+00
   183  1.8200000000000D+00  0.0000000000000D+00  0.0000000000000D+00
   184  1.8300000000000D+00  0.0000000000000D+00  0.0000000000000D+00
   185  1.8400000000000D+00  0.0000000000000D+00  0.0000000000000D+00
   186  1.8500000000000D+00  0.0000000000000D+00  0.0000000000000D+00
   187  1.8600000000000D+00  0.0000000000000D+00  0.0000000000000D+00
   188  1.8700000000000D+00  0.0000000000000D+00  0.0000000000000D+00
   189  1.8800000000000D+00  0.0000000000000D+00  0.0000000000000D+00
   190  1.8900000000000D+00  0.0000000000000D+00  0.0000000000000D+00
   191  1.9000000000000D+00  0.0000000000000D+00  0.0000000000000D+00
   192  1.9100000000000D+00  0.0000000000000D+00  0.0000000000000D+00
   193  1.9200000000000D+00  0.0000000000000D+00  0.0000000000000D+00
   194  1.9300000000000D+00  0.0000000000000D+00  0.0000000000000D+00
   195  1.9400000000000D+00  0.0000000000000D+00  0.0000000000000D+00
   196  1.9500000000000D+00  0.0000000000000D+00  0.0000000000000D+00
   197  1.9600000000000D+00  0.0000000000000D+00  0.0000000000000D+00
   198  1.9700000000000D+00  0.0000000000000D+00  0.0000000000000D+00
   199  1.9800000000000D+00  0.0000000000000D+00  0.0000000000000D+00
   200  1.9900000000000D+00  0.0000000000000D+00  0.0000000000000D+00
   201  2.0000000000000D+00  0.0000000000000D+00  0.0000000000000D+00
   202  2.0100000000000D+00  0.0000000000000D+00  0.0000000000000D+00
   203  2.0200000000000D+00  0.0000000000000D+00  0.0000000000000D+00
   204  2.0300000000000D+00  0.0000000000000D+00  0.0000000000000D+00
   205  2.0400000000000D+00  0.0000000000000D+00  0.0000000000000D+00
   206  2.0500000000000D+00  0.0000000000000D+00  0.0000000000000D+00
   207  2.0600000000000D+00  0.0000000000000D+00  0.0000000000000D+00
   208  2.0700000000000D+00  0.0000000000000D+00  0.0000000000000D+00
   209  2.0800000000000D+00  0.0000000000000D+00  0.0000000000000D+00
   210  2.0900000000000D+00  0.0000000000000D+00  0.0000000000000D+00
   211  2.1000000000000D+00  0.0000000000000D+00  0.0000000000000D+00
   212  2.1100000000000D+00  0.0000000000000D+00  0.0000000000000D+00
   213  2.1200000000000D+00  0.0000000000000D+00  0.0000000000000D+00
   214  2.1300000000000D+00  0.0000000000000D+00  0.0000000000000D+00
   215  2.1400000000000D+00  0.0000000000000D+00  0.0000000000000D+00
   216  2.1500000000000D+00  0.0000000000000D+00  0.0000000000000D+00
   217  2.1600000000000D+00  0.0000000000000D+00  0.0000000000000D+00
   218  2.1700000000000D+00  0.0000000000000D+00  0.0000000000000D+00
   219  2.1800000000000D+00  0.0000000000000D+00  0.0000000000000D+00
   220  2.1900000000000D+00  0.0000000000000D+00  0.0000000000000D+00
   221  2.2000000000000D+00  0.0000000000000D+00  0.0000000000000D+00
   222  2.2100000000000D+00  0.0000000000000D+00  0.0000000000000D+00
   223  2.2200000000000D+00  0.0000000000000D+00  0.0000000000000D+00
   224  2.2300000000000D+00  0.0000000000000D+00  0.0000000000000D+00
   225  2.2400000000000D+00  0.0000000000000D+00  0.0000000000000D+00
   226  2.2500000000000D+00  0.0000000000000D+00  0.0000000000000D+00
   227  2.2600000000000D+00  0.0000000000000D+00  0.0000000000000D+00
   228  2.2700000000000D+00  0.0000000000000D+00  0.0000000000000D+00
   229  2.2800000000000D+00  0.0000000000000D+00  0.0000000000000D+00
   230  2.2900000000000D+00  0.0000000000000D+00  0.0000000000000D+00
   231  2.3000000000000D+00  0.0000000000000D+00  0.0000000000000D+00
   232  2.3100000000000D+00  0.0000000000000D+00  0.0000000000000D+00
   233  2.3200000000000D+00  0.0000000000000D+00  0.0000000000000D+00
   234  2.3300000000000D+00  0.0000000000000D+00  0.0000000000000D+00
   235  2.3400000000000D+00  0.0000000000000D+00  0.0000000000000D+00
   236  2.3500000000000D+00  0.0000000000000D+00  0.0000000000000D+00
   237  2.3600000000000D+00  0.0000000000000D+00  0.0000000000000D+00
   238  2.3700000000000D+00  0.0000000000000D+00  0.0000000000000D+00
   239  2.3800000000000D+00  0.0000000000000D+00  0.0000000000000D+00
   240  2.3900000000000D+00  0.0000000000000D+00  0.0000000000000D+00
   241  2.4000000000000D+00  0.0000000000000D+00  0.0000000000000D+00
   242  2.4100000000000D+00  0.0000000000000D+00  0.0000000000000D+00
   243  2.4200000000000D+00  0.0000000000000D+00  0.0000000000000D+00
   244  2.4300000000000D+00  0.0000000000000D+00  0.0000000000000D+00
   245  2.4400000000000D+00  0.0000000000000D+00  0.0000000000000D+00
   246  2.4500000000000D+00  0.0000000000000D+00  0.0000000000000D+00
   247  2.4600000000000D+00  0.0000000000000D+00  0.0000000000000D+00
   248  2.4700000000000D+00  0.0000000000000D+00  0.0000000000000D+00
   249  2.4800000000000D+00  0.0000000000000D+00  0.0000000000000D+00
   250  2.4900000000000D+00  0.0000000000000D+00  0.0000000000000D+00
   251  2.5000000000000D+00  0.0000000000000D+00  0.0000000000000D+00
   252  2.5100000000000D+00  0.0000000000000D+00  0.0000000000000D+00
   253  2.5200000000000D+00  0.0000000000000D+00  0.0000000000000D+00
   254  2.5300000000000D+00  0.0000000000000D+00  0.0000000000000D+00
   255  2.5400000000000D+00  0.0000000000000D+00  0.0000000000000D+00
   256  2.5500000000000D+00  0.0000000000000D+00  0.0000000000000D+00
   257  2.5600000000000D+00  0.0000000000000D+00  0.0000000000000D+00
   258  2.5700000000000D+00  0.0000000000000D+00  0.0000000000000D+00
   259  2.5800000000000D+00  0.0000000000000D+00  0.0000000000000D+00
   260  2.5900000000000D+00  0.0000000000000D+00  0.0000000000000D+00
   261  2.6000000000000D+00  0.0000000000000D+00  0.0000000000000D+00
   262  2.6100000000000D+00  0.0000000000000D+00  0.0000000000000D+00
   263  2.6200000000000D+00  0.0000000000000D+00  0.0000000000000D+00
   264  2.6300000000000D+00  0.0000000000000D+00  0.0000000000000D+00
   265  2.6400000000000D+00  0.0000000000000D+00  0.0000000000000D+00
   266  2.6500000000000D+00  0.0000000000000D+00  0.0000000000000D+00
   267  2.6600000000000D+00  0.0000000000000D+00  0.0000000000000D+00
   268  2.6700000000000D+00  0.0000000000000D+00  0.0000000000000D+00
   269  2.6800000000000D+00  0.0000000000000D+00  0.0000000000000D+00
   270  2.6900000000000D+00  0.0000000000000D+00  0.0000000000000D+00
   271  2.7000000000000D+00  0.0000000000000D+00  0.0000000000000D+00
   272  2.7100000000000D+00  0.0000000000000D+00  0.0000000000000D+00
   273  2.7200000000000D+00  0.0000000000000D+00  0.0000000000000D+00
   274  2.7300000000000D+00  0.0000000000000D+00  0.0000000000000D+00
   275  2.7400000000000D+00  0.0000000000000D+00  0.0000000000000D+00
   276  2.7500000000000D+00  0.0000000000000D+00  0.0000000000000D+00
   277  2.7600000000000D+00  0.0000000000000D+00  0.0000000000000D+00
   278  2.7700000000000D+00  0.0000000000000D+00  0.0000000000000D+00
   279  2.7800000000000D+00  0.0000000000000D+00  0.0000000000000D+00
   280  2.7900000000000D+00  0.0000000000000D+00  0.0000000000000D+00
   281  2.8000000000000D+00  0.0000000000000D+00  0.0000000000000D+00
   282  2.8100000000000D+00  0.0000000000000D+00  0.0000000000000D+00
   283  2.8200000000000D+00  0.0000000000000D+00  0.0000000000000D+00
   284  2.8300000000000D+00  0.0000000000000D+00  0.0000000000000D+00
   285  2.8400000000000D+00  0.0000000000000D+00  0.0000000000000D+00
   286  2.8500000000000D+00  0.0000000000000D+00  0.0000000000000D+00
   287  2.8600000000000D+00  0.0000000000000D+00  0.0000000000000D+00
   288  2.8700000000000D+00  0.0000000000000D+00  0.0000000000000D+00
   289  2.8800000000000D+00  0.0000000000000D+00  0.0000000000000D+00
   290  2.8900000000000D+00  0.0000000000000D+00  0.0000000000000D+00
   291  2.9000000000000D+00  0.0000000000000D+00  0.0000000000000D+00
   292  2.9100000000000D+00  0.0000000000000D+00  0.0000000000000D+00
   293  2.9200000000000D+00  0.0000000000000D+00  0.0000000000000D+00
   294  2.9300000000000D+00  0.0000000000000D+00  0.0000000000000D+00
   295  2.9400000000000D+00  0.0000000000000D+00  0.0000000000000D+00
   296  2.9500000000000D+00  0.0000000000000D+00  0.0000000000000D+00
   297  2.9600000000000D+00  0.0000000000000D+00  0.0000000000000D+00
   298  2.9700000000000D+00  0.0000000000000D+00  0.0000000000000D+00
   299  2.9800000000000D+00  0.0000000000000D+00  0.0000000000000D+00
   300  2.9900000000000D+00  0.0000000000000D+00  0.0000000000000D+00
   301  3.0000000000000D+00  0.0000000000000D+00  0.0000000000000D+00
   302  3.0100000000000D+00  0.0000000000000D+00  0.0000000000000D+00
   303  3.0200000000000D+00  0.0000000000000D+00  0.0000000000000D+00
   304  3.0300000000000D+00  0.0000000000000D+00  0.0000000000000D+00
   305  3.0400000000000D+00  0.0000000000000D+00  0.0000000000000D+00
   306  3.0500000000000D+00  0.0000000000000D+00  0.0000000000000D+00
   307  3.0600000000000D+00  0.0000000000000D+00  0.0000000000000D+00
   308  3.0700000000000D+00  0.0000000000000D+00  0.0000000000000D+00
   309  3.0800000000000D+00  0.0000000000000D+00  0.0000000000000D+00
   310  3.0900000000000D+00  0.0000000000000D+00  0.0000000000000D+00
   311  3.1000000000000D+00  0.0000000000000D+00  0.0000000000000D+00
   312  3.1100000000000D+00  0.0000000000000D+00  0.0000000000000D+00
   313  3.1200000000000D+00  0.0000000000000D+00  0.0000000000000D+00
   314  3.1300000000000D+00  0.0000000000000D+00  0.0000000000000D+00
   315  3.1400000000000D+00  0.0000000000000D+00  0.0000000000000D+00
   316  3.1500000000000D+00  0.0000000000000D+00  0.0000000000000D+00
   317  3.1600000000000D+00  0.0000000000000D+00  0.0000000000000D+00
   318  3.1700000000000D+00  0.0000000000000D+00  0.0000000000000D+00
   319  3.1800000000000D+00  0.0000000000000D+00  0.0000000000000D+00
   320  3.1900000000000D+00  0.0000000000000D+00  0.0000000000000D+00
   321  3.2000000000000D+00  0.0000000000000D+00  0.0000000000000D+00
   322  3.2100000000000D+00  0.0000000000000D+00  0.0000000000000D+00
   323  3.2200000000000D+00  0.0000000000000D+00  0.0000000000000D+00
   324  3.2300000000000D+00  0.0000000000000D+00  0.0000000000000D+00
   325  3.2400000000000D+00  0.0000000000000D+00  0.0000000000000D+00
   326  3.2500000000000D+00  0.0000000000000D+00  0.0000000000000D+00
   327  3.2600000000000D+00  0.0000000000000D+00  0.0000000000000D+00
   328  3.2700000000000D+00  0.0000000000000D+00  0.0000000000000D+00
   329  3.2800000000000D+00  0.0000000000000D+00  0.0000000000000D+00
   330  3.2900000000000D+00  0.0000000000000D+00  0.0000000000000D+00
   331  3.3000000000000D+00  0.0000000000000D+00  0.0000000000000D+00
   332  3.3100000000000D+00  0.0000000000000D+00  0.0000000000000D+00
   333  3.3200000000000D+00  0.0000000000000D+00  0.0000000000000D+00
   334  3.3300000000000D+00  0.0000000000000D+00  0.0000000000000D+00
   335  3.3400000000000D+00  0.0000000000000D+00  0.0000000000000D+00
   336  3.3500000000000D+00  0.0000000000000D+00  0.0000000000000D+00
   337  3.3600000000000D+00  0.0000000000000D+00  0.0000000000000D+00
   338  3.3700000000000D+00  0.0000000000000D+00  0.0000000000000D+00
   339  3.3800000000000D+00  0.0000000000000D+00  0.0000000000000D+00
   340  3.3900000000000D+00  0.0000000000000D+00  0.0000000000000D+00
   341  3.4000000000000D+00  0.0000000000000D+00  0.0000000000000D+00
   342  3.4100000000000D+00  0.0000000000000D+00  0.0000000000000D+00
   343  3.4200000000000D+00  0.0000000000000D+00  0.0000000000000D+00
   344  3.4300000000000D+00  0.0000000000000D+00  0.0000000000000D+00
   345  3.4400000000000D+00  0.0000000000000D+00  0.0000000000000D+00
   346  3.4500000000000D+00  0.0000000000000D+00  0.0000000000000D+00
   347  3.4600000000000D+00  0.0000000000000D+00  0.0000000000000D+00
   348  3.4700000000000D+00  0.0000000000000D+00  0.0000000000000D+00
   349  3.4800000000000D+00  0.0000000000000D+00  0.0000000000000D+00
   350  3.4900000000000D+00  0.0000000000000D+00  0.0000000000000D+00
   351  3.5000000000000D+00  0.0000000000000D+00  0.0000000000000D+00
   352  3.5100000000000D+00  0.0000000000000D+00  0.0000000000000D+00
   353  3.5200000000000D+00  0.0000000000000D+00  0.0000000000000D+00
   354  3.5300000000000D+00  0.0000000000000D+00  0.0000000000000D+00
   355  3.5400000000000D+00  0.0000000000000D+00  0.0000000000000D+00
   356  3.5500000000000D+00  0.0000000000000D+00  0.0000000000000D+00
   357  3.5600000000000D+00  0.0000000000000D+00  0.0000000000000D+00
   358  3.5700000000000D+00  0.0000000000000D+00  0.0000000000000D+00
   359  3.5800000000000D+00  0.0000000000000D+00  0.0000000000000D+00
   360  3.5900000000000D+00  0.0000000000000D+00  0.0000000000000D+00
   361  3.6000000000000D+00  0.0000000000000D+00  0.0000000000000D+00
   362  3.6100000000000D+00  0.0000000000000D+00  0.0000000000000D+00
   363  3.6200000000000D+00  0.0000000000000D+00  0.0000000000000D+00
   364  3.6300000000000D+00  0.0000000000000D+00  0.0000000000000D+00
   365  3.6400000000000D+00  0.0000000000000D+00  0.0000000000000D+00
   366  3.6500000000000D+00  0.0000000000000D+00  0.0000000000000D+00
   367  3.6600000000000D+00  0.0000000000000D+00  0.0000000000000D+00
   368  3.6700000000000D+00  0.0000000000000D+00  0.0000000000000D+00
   369  3.6800000000000D+00  0.0000000000000D+00  0.0000000000000D+00
   370  3.6900000000000D+00  0.0000000000000D+00  0.0000000000000D+00
   371  3.7000000000000D+00  0.0000000000000D+00  0.0000000000000D+00
   372  3.7100000000000D+00  0.0000000000000D+00  0.0000000000000D+00
   373  3.7200000000000D+00  0.0000000000000D+00  0.0000000000000D+00
   374  3.7300000000000D+00  0.0000000000000D+00  0.0000000000000D+00
   375  3.7400000000000D+00  0.0000000000000D+00  0.0000000000000D+00
   376  3.7500000000000D+00  0.0000000000000D+00  0.0000000000000D+00
   377  3.7600000000000D+00  0.0000000000000D+00  0.0000000000000D+00
   378  3.7700000000000D+00  0.0000000000000D+00  0.0000000000000D+00
   379  3.7800000000000D+00  0.0000000000000D+00  0.0000000000000D+00
   380  3.7900000000000D+00  0.0000000000000D+00  0.0000000000000D+00
   381  3.8000000000000D+00  0.0000000000000D+00  0.0000000000000D+00
   382  3.8100000000000D+00  0.0000000000000D+00  0.0000000000000D+00
   383  3.8200000000000D+00  0.0000000000000D+00  0.0000000000000D+00
   384  3.8300000000000D+00  0.0000000000000D+00  0.0000000000000D+00
   385  3.8400000000000D+00  0.0000000000000D+00  0.0000000000000D+00
   386  3.8500000000000D+00  0.0000000000000D+00  0.0000000000000D+00
   387  3.8600000000000D+00  0.0000000000000D+00  0.0000000000000D+00
   388  3.8700000000000D+00  0.0000000000000D+00  0.0000000000000D+00
   389  3.8800000000000D+00  0.0000000000000D+00  0.0000000000000D+00
   390  3.8900000000000D+00  0.0000000000000D+00  0.0000000000000D+00
   391  3.9000000000000D+00  0.0000000000000D+00  0.0000000000000D+00
   392  3.9100000000000D+00  0.0000000000000D+00  0.0000000000000D+00
   393  3.9200000000000D+00  0.0000000000000D+00  0.0000000000000D+00
   394  3.9300000000000D+00  0.0000000000000D+00  0.0000000000000D+00
   395  3.9400000000000D+00  0.0000000000000D+00  0.0000000000000D+00
   396  3.9500000000000D+00  0.0000000000000D+00  0.0000000000000D+00
   397  3.9600000000000D+00  0.0000000000000D+00  0.0000000000000D+00
   398  3.9700000000000D+00  0.0000000000000D+00  0.0000000000000D+00
   399  3.9800000000000D+00  0.0000000000000D+00  0.0000000000000D+00
   400  3.9900000000000D+00  0.0000000000000D+00  0.0000000000000D+00
   401  4.0000000000000D+00  0.0000000000000D+00  0.0000000000000D+00
   402  4.0100000000000D+00  0.0000000000000D+00  0.0000000000000D+00
   403  4.0200000000000D+00  0.0000000000000D+00  0.0000000000000D+00
   404  4.0300000000000D+00  0.0000000000000D+00  0.0000000000000D+00
   405  4.0400000000000D+00  0.0000000000000D+00  0.0000000000000D+00
   406  4.0500000000000D+00  0.0000000000000D+00  0.0000000000000D+00
   407  4.0600000000000D+00  0.0000000000000D+00  0.0000000000000D+00
   408  4.0700000000000D+00  0.0000000000000D+00  0.0000000000000D+00
   409  4.0800000000000D+00  0.0000000000000D+00  0.0000000000000D+00
   410  4.0900000000000D+00  0.0000000000000D+00  0.0000000000000D+00
   411  4.1000000000000D+00  0.0000000000000D+00  0.0000000000000D+00
   412  4.1100000000000D+00  0.0000000000000D+00  0.0000000000000D+00
   413  4.1200000000000D+00  0.0000000000000D+00  0.0000000000000D+00
   414  4.1300000000000D+00  0.0000000000000D+00  0.0000000000000D+00
   415  4.1400000000000D+00  0.0000000000000D+00  0.0000000000000D+00
   416  4.1500000000000D+00  0.0000000000000D+00  0.0000000000000D+00
   417  4.1600000000000D+00  0.0000000000000D+00  0.0000000000000D+00
   418  4.1700000000000D+00  0.0000000000000D+00  0.0000000000000D+00
   419  4.1800000000000D+00  0.0000000000000D+00  0.0000000000000D+00
   420  4.1900000000000D+00  0.0000000000000D+00  0.0000000000000D+00
   421  4.2000000000000D+00  0.0000000000000D+00  0.0000000000000D+00
   422  4.2100000000000D+00  0.0000000000000D+00  0.0000000000000D+00