Tc    ONCVPSP-3.3.0  r_core=   1.40470   1.40470   1.35532
     43.0000     15.0000      220408    zatom,zion,pspd
     8       2   2     4   600     0    pspcod,pspxc,lmax,lloc,mmax,r2well
  5.99000000  0.00000000  0.00000000    rchrg fchrg qchrg
     2     2     2     0     0    nproj
     1     1           extension_switch
   0                         1.4515960708471D+01  1.4669111090056D+00
     1  0.0000000000000D+00 -3.4149089112034D-10  1.7104363758680D-09
     2  1.0000000000000D-02  6.0172630447608D-02 -3.1467104081206D-02
     3  2.0000000000000D-02  1.2025564666696D-01 -6.2758247640500D-02
     4  3.0000000000000D-02  1.8015969502069D-01 -9.3699144456031D-02
     5  4.0000000000000D-02  2.3979593864837D-01 -1.2411882998270D-01
     6  5.0000000000000D-02  2.9907630493198D-01 -1.5385125532638D-01
     7  6.0000000000000D-02  3.5791372010149D-01 -1.8273680221837D-01
     8  7.0000000000000D-02  4.1622232710285D-01 -2.1062369469886D-01
     9  8.0000000000000D-02  4.7391768319165D-01 -2.3736928492846D-01
    10  9.0000000000000D-02  5.3091693413216D-01 -2.6284119263577D-01
    11  1.0000000000000D-01  5.8713896236488D-01 -2.8691828014427D-01
    12  1.1000000000000D-01  6.4250450704838D-01 -3.0949144766636D-01
    13  1.2000000000000D-01  6.9693625447461D-01 -3.3046423656460D-01
    14  1.3000000000000D-01  7.5035889798945D-01 -3.4975323151258D-01
    15  1.4000000000000D-01  8.0269916721241D-01 -3.6728825589167D-01
    16  1.5000000000000D-01  8.5388582702867D-01 -3.8301235828073D-01
    17  1.6000000000000D-01  9.0384964751148D-01 -3.9688159147968D-01
    18  1.7000000000000D-01  9.5252334661083D-01 -4.0886458909696D-01
    19  1.8000000000000D-01  9.9984150810310D-01 -4.1894194826839D-01
    20  1.9000000000000D-01  1.0457404779235D+00 -4.2710543050422D-01
    21  2.0000000000000D-01  1.0901582425874D+00 -4.3335699592460D-01
    22  2.1000000000000D-01  1.1330342939341D+00 -4.3770768918918D-01
    23  2.2000000000000D-01  1.1743094848928D+00 -4.4017639820058D-01
    24  2.3000000000000D-01  1.2139258813546D+00 -4.4078850911754D-01
    25  2.4000000000000D-01  1.2518266155402D+00 -4.3957448330724D-01
    26  2.5000000000000D-01  1.2879557464623D+00 -4.3656838355825D-01
    27  2.6000000000000D-01  1.3222581331960D+00 -4.3180637813483D-01
    28  2.7000000000000D-01  1.3546793266760D+00 -4.2532525204942D-01
    29  2.8000000000000D-01  1.3851654856454D+00 -4.1716095524673D-01
    30  2.9000000000000D-01  1.4136633221703D+00 -4.0734721721387D-01
    31  3.0000000000000D-01  1.4401200818228D+00 -3.9591425685187D-01
    32  3.1000000000000D-01  1.4644835632106D+00 -3.8288761526749D-01
    33  3.2000000000000D-01  1.4867021810072D+00 -3.6828713747876D-01
    34  3.3000000000000D-01  1.5067250760147D+00 -3.5212612689160D-01
    35  3.4000000000000D-01  1.5245022750766D+00 -3.3441069382399D-01
    36  3.5000000000000D-01  1.5399849028640D+00 -3.1513931635962D-01
    37  3.6000000000000D-01  1.5531254466904D+00 -2.9430262844645D-01
    38  3.7000000000000D-01  1.5638780745853D+00 -2.7188344646196D-01
    39  3.8000000000000D-01  1.5721990058831D+00 -2.4785704149981D-01
    40  3.9000000000000D-01  1.5780469325781D+00 -2.2219166044891D-01
    41  4.0000000000000D-01  1.5813834886763D+00 -1.9484929459959D-01
    42  4.1000000000000D-01  1.5821737637488D+00 -1.6578669008702D-01
    43  4.2000000000000D-01  1.5803868558854D+00 -1.3495659004024D-01
    44  4.3000000000000D-01  1.5759964582735D+00 -1.0230919391509D-01
    45  4.4000000000000D-01  1.5689814726977D+00 -6.7793815225404D-02
    46  4.5000000000000D-01  1.5593266423981D+00 -3.1360714816572D-02
    47  4.6000000000000D-01  1.5470231959475D+00  7.0369169773413D-03
    48  4.7000000000000D-01  1.5320694931230D+00  4.7440859422258D-02
    49  4.8000000000000D-01  1.5144716631815D+00  8.9885674922133D-02
    50  4.9000000000000D-01  1.4942442255016D+00  1.3439647282794D-01
    51  5.0000000000000D-01  1.4714106822457D+00  1.8098666144976D-01
    52  5.1000000000000D-01  1.4460040725297D+00  2.2965572775787D-01
    53  5.2000000000000D-01  1.4180674775823D+00  2.8038708522176D-01
    54  5.3000000000000D-01  1.3876544665181D+00  3.3314603057207D-01
    55  5.4000000000000D-01  1.3548294726641D+00  3.8787784996396D-01
    56  5.5000000000000D-01  1.3196680908495D+00  4.4450611405655D-01
    57  5.6000000000000D-01  1.2822572867064D+00  5.0293119989968D-01
    58  5.7000000000000D-01  1.2426955098188D+00  5.6302907525258D-01
    59  5.8000000000000D-01  1.2010927035036D+00  6.2465037805090D-01
    60  5.9000000000000D-01  1.1575702050880D+00  6.8761982024868D-01
    61  6.0000000000000D-01  1.1122605317681D+00  7.5173594118771D-01
    62  6.1000000000000D-01  1.0653070484571D+00  8.1677123108811D-01
    63  6.2000000000000D-01  1.0168635154677D+00  8.8247264022158D-01
    64  6.3000000000000D-01  9.6709351538532D-01  9.4856248391706D-01
    65  6.4000000000000D-01  9.1616976005576D-01  1.0147397478477D+00
    66  6.5000000000000D-01  8.6427328023678D-01  1.0806817920731D+00
    67  6.6000000000000D-01  8.1159250208733D-01  1.1460464462417D+00
    68  6.7000000000000D-01  7.5832221629674D-01  1.2104744822150D+00
    69  6.8000000000000D-01  7.0466244725786D-01  1.2735924442661D+00
    70  6.9000000000000D-01  6.5081723123000D-01  1.3350158110495D+00
    71  7.0000000000000D-01  5.9699331390183D-01  1.3943524578236D+00
    72  7.1000000000000D-01  5.4339877913536D-01  1.4512063819886D+00
    73  7.2000000000000D-01  4.9024162191213D-01  1.5051816500265D+00
    74  7.3000000000000D-01  4.3772827960106D-01  1.5558865194511D+00
    75  7.4000000000000D-01  3.8606213660325D-01  1.6029376854695D+00
    76  7.5000000000000D-01  3.3544201818021D-01  1.6459645988238D+00
    77  7.6000000000000D-01  2.8606068983168D-01  1.6846137987419D+00
    78  7.7000000000000D-01  2.3810337893583D-01  1.7185532031794D+00
    79  7.8000000000000D-01  1.9174633549495D-01  1.7474762975938D+00
    80  7.9000000000000D-01  1.4715544873486D-01  1.7711061633929D+00
    81  8.0000000000000D-01  1.0448493598371D-01  1.7891992879692D+00
    82  8.1000000000000D-01  6.3876119704661D-02  1.8015490998628D+00
    83  8.2000000000000D-01  2.5456307781902D-02  1.8079891750903D+00
    84  8.3000000000000D-01 -1.0662208832946D-02  1.8083960640059D+00
    85  8.4000000000000D-01 -4.4383028206701D-02  1.8026916921896D+00
    86  8.5000000000000D-01 -7.5626367727906D-02  1.7908452937415D+00
    87  8.6000000000000D-01 -1.0432964268189D-01  1.7728748409315D+00
    88  8.7000000000000D-01 -1.3044788487737D-01  1.7488479403457D+00
    89  8.8000000000000D-01 -1.5395399496409D-01  1.7188821723929D+00
    90  8.9000000000000D-01 -1.7483882404968D-01  1.6831448581962D+00
    91  9.0000000000000D-01 -1.9311108227469D-01  1.6418522453964D+00
    92  9.1000000000000D-01 -2.0879707410949D-01  1.5952681121218D+00
    93  9.2000000000000D-01 -2.2194026226494D-01  1.5437017962204D+00
    94  9.3000000000000D-01 -2.3260066423006D-01  1.4875056646900D+00
    95  9.4000000000000D-01 -2.4085408753416D-01  1.4270720459607D+00
    96  9.5000000000000D-01 -2.4679121184584D-01  1.3628296551552D+00
    97  9.6000000000000D-01 -2.5051652793844D-01  1.2952395495724D+00
    98  9.7000000000000D-01 -2.5214714533961D-01  1.2247906582813D+00
    99  9.8000000000000D-01 -2.5181148212185D-01  1.1519949357955D+00
   100  9.9000000000000D-01 -2.4964785174010D-01  1.0773821951715D+00
   101  1.0000000000000D+00 -2.4580296306384D-01  1.0014946804654D+00
   102  1.0100000000000D+00 -2.4043035080839D-01  9.2488144236447D-01
   103  1.0200000000000D+00 -2.3368875432914D-01  8.4809258357392D-01
   104  1.0300000000000D+00 -2.2574046329141D-01  7.7167344249059D-01
   105  1.0400000000000D+00 -2.1674964900306D-01  6.9615878460744D-01
   106  1.0500000000000D+00 -2.0688070016973D-01  6.2206707084073D-01
   107  1.0600000000000D+00 -1.9629658163364D-01  5.4989487108454D-01
   108  1.0700000000000D+00 -1.8515723405434D-01  4.8011148883253D-01
   109  1.0800000000000D+00 -1.7361803173742D-01  4.1315385969872D-01
   110  1.0900000000000D+00 -1.6182831476213D-01  3.4942178248221D-01
   111  1.1000000000000D+00 -1.4993001020316D-01  2.8927353608653D-01
   112  1.1100000000000D+00 -1.3805635599169D-01  2.3302193069302D-01
   113  1.1200000000000D+00 -1.2633073893801D-01  1.8093083367722D-01
   114  1.1300000000000D+00 -1.1486565684725D-01  1.3321220455274D-01
   115  1.1400000000000D+00 -1.0376181231924D-01  9.0023664114664D-02
   116  1.1500000000000D+00 -9.3107344352924D-02  5.1466617231855D-02
   117  1.1600000000000D+00 -8.2977200900136D-02  1.7584937188315D-02
   118  1.1700000000000D+00 -7.3432652282652D-02 -1.1635795172600D-02
   119  1.1800000000000D+00 -6.4520944237455D-02 -3.6268504138370D-02
   120  1.1900000000000D+00 -5.6275142191398D-02 -5.6444026734250D-02
   121  1.2000000000000D+00 -4.8713937533058D-02 -7.2350880144262D-02
   122  1.2100000000000D+00 -4.1841762734781D-02 -8.4233621542751D-02
   123  1.2200000000000D+00 -3.5650637413092D-02 -9.2382147256391D-02
   124  1.2300000000000D+00 -3.0122474990009D-02 -9.7119516579862D-02
   125  1.2400000000000D+00 -2.5231255640429D-02 -9.8791158497127D-02
   126  1.2500000000000D+00 -2.0943906046018D-02 -9.7761370013243D-02
   127  1.2600000000000D+00 -1.7221585007980D-02 -9.4407724268671D-02
   128  1.2700000000000D+00 -1.4020963190160D-02 -8.9115617830240D-02
   129  1.2800000000000D+00 -1.1295541072895D-02 -8.2272697135734D-02
   130  1.2900000000000D+00 -8.9969708304570D-03 -7.4263314191448D-02
   131  1.3000000000000D+00 -7.0763715702317D-03 -6.5463039281482D-02
   132  1.3100000000000D+00 -5.4856172145775D-03 -5.6233313882814D-02
   133  1.3200000000000D+00 -4.1785778136624D-03 -4.6916318098385D-02
   134  1.3300000000000D+00 -3.1122970908560D-03 -3.7830119100646D-02
   135  1.3400000000000D+00 -2.2480887011630D-03 -2.9264168320093D-02
   136  1.3500000000000D+00 -1.5525349711302D-03 -2.1475210127161D-02
   137  1.3600000000000D+00 -9.9851941396741D-04 -1.4687313085884D-02
   138  1.3700000000000D+00 -5.6533870950585D-04 -9.0722167961662D-03
   139  1.3800000000000D+00 -2.4013617029199D-04 -4.7413405656469D-03
   140  1.3900000000000D+00 -1.8150261127078D-05 -1.9237964829250D-03
   141  1.4000000000000D+00  9.6605763424635D-05 -5.8974112287379D-04
   142  1.4100000000000D+00  8.5626745278764D-05 -1.2077875203098D-04
   143  1.4200000000000D+00  1.0138958868580D-05 -4.2858581365996D-06
   144  1.4300000000000D+00 -1.3883672356089D-05  6.7468964433101D-07
   145  1.4400000000000D+00  9.3591540065484D-07 -6.0374163882964D-07
   146  1.4500000000000D+00  2.5349167468934D-06 -1.2327040536272D-06
   147  1.4600000000000D+00 -2.2624765843832D-07  6.4304620851342D-07
   148  1.4700000000000D+00 -1.6517505275741D-07  4.6946426827049D-07
   149  1.4800000000000D+00  0.0000000000000D+00  0.0000000000000D+00
   150  1.4900000000000D+00  0.0000000000000D+00  0.0000000000000D+00
   151  1.5000000000000D+00  0.0000000000000D+00  0.0000000000000D+00
   152  1.5100000000000D+00  0.0000000000000D+00  0.0000000000000D+00
   153  1.5200000000000D+00  0.0000000000000D+00  0.0000000000000D+00
   154  1.5300000000000D+00  0.0000000000000D+00  0.0000000000000D+00
   155  1.5400000000000D+00  0.0000000000000D+00  0.0000000000000D+00
   156  1.5500000000000D+00  0.0000000000000D+00  0.0000000000000D+00
   157  1.5600000000000D+00  0.0000000000000D+00  0.0000000000000D+00
   158  1.5700000000000D+00  0.0000000000000D+00  0.0000000000000D+00
   159  1.5800000000000D+00  0.0000000000000D+00  0.0000000000000D+00
   160  1.5900000000000D+00  0.0000000000000D+00  0.0000000000000D+00
   161  1.6000000000000D+00  0.0000000000000D+00  0.0000000000000D+00
   162  1.6100000000000D+00  0.0000000000000D+00  0.0000000000000D+00
   163  1.6200000000000D+00  0.0000000000000D+00  0.0000000000000D+00
   164  1.6300000000000D+00  0.0000000000000D+00  0.0000000000000D+00
   165  1.6400000000000D+00  0.0000000000000D+00  0.0000000000000D+00
   166  1.6500000000000D+00  0.0000000000000D+00  0.0000000000000D+00
   167  1.6600000000000D+00  0.0000000000000D+00  0.0000000000000D+00
   168  1.6700000000000D+00  0.0000000000000D+00  0.0000000000000D+00
   169  1.6800000000000D+00  0.0000000000000D+00  0.0000000000000D+00
   170  1.6900000000000D+00  0.0000000000000D+00  0.0000000000000D+00
   171  1.7000000000000D+00  0.0000000000000D+00  0.0000000000000D+00
   172  1.7100000000000D+00  0.0000000000000D+00  0.0000000000000D+00
   173  1.7200000000000D+00  0.0000000000000D+00  0.0000000000000D+00
   174  1.7300000000000D+00  0.0000000000000D+00  0.0000000000000D+00
   175  1.7400000000000D+00  0.0000000000000D+00  0.0000000000000D+00
   176  1.7500000000000D+00  0.0000000000000D+00  0.0000000000000D+00
   177  1.7600000000000D+00  0.0000000000000D+00  0.0000000000000D+00
   178  1.7700000000000D+00  0.0000000000000D+00  0.0000000000000D+00
   179  1.7800000000000D+00  0.0000000000000D+00  0.0000000000000D+00
   180  1.7900000000000D+00  0.0000000000000D+00  0.0000000000000D+00
   181  1.8000000000000D+00  0.0000000000000D+00  0.0000000000000D+00
   182  1.8100000000000D+00  0.0000000000000D+00  0.0000000000000D+00
   183  1.8200000000000D+00  0.0000000000000D+00  0.0000000000000D+00
   184  1.8300000000000D+00  0.0000000000000D+00  0.0000000000000D+00
   185  1.8400000000000D+00  0.0000000000000D+00  0.0000000000000D+00
   186  1.8500000000000D+00  0.0000000000000D+00  0.0000000000000D+00
   187  1.8600000000000D+00  0.0000000000000D+00  0.0000000000000D+00
   188  1.8700000000000D+00  0.0000000000000D+00  0.0000000000000D+00
   189  1.8800000000000D+00  0.0000000000000D+00  0.0000000000000D+00
   190  1.8900000000000D+00  0.0000000000000D+00  0.0000000000000D+00
   191  1.9000000000000D+00  0.0000000000000D+00  0.0000000000000D+00
   192  1.9100000000000D+00  0.0000000000000D+00  0.0000000000000D+00
   193  1.9200000000000D+00  0.0000000000000D+00  0.0000000000000D+00
   194  1.9300000000000D+00  0.0000000000000D+00  0.0000000000000D+00
   195  1.9400000000000D+00  0.0000000000000D+00  0.0000000000000D+00
   196  1.9500000000000D+00  0.0000000000000D+00  0.0000000000000D+00
   197  1.9600000000000D+00  0.0000000000000D+00  0.0000000000000D+00
   198  1.9700000000000D+00  0.0000000000000D+00  0.0000000000000D+00
   199  1.9800000000000D+00  0.0000000000000D+00  0.0000000000000D+00
   200  1.9900000000000D+00  0.0000000000000D+00  0.0000000000000D+00
   201  2.0000000000000D+00  0.0000000000000D+00  0.0000000000000D+00
   202  2.0100000000000D+00  0.0000000000000D+00  0.0000000000000D+00
   203  2.0200000000000D+00  0.0000000000000D+00  0.0000000000000D+00
   204  2.0300000000000D+00  0.0000000000000D+00  0.0000000000000D+00
   205  2.0400000000000D+00  0.0000000000000D+00  0.0000000000000D+00
   206  2.0500000000000D+00  0.0000000000000D+00  0.0000000000000D+00
   207  2.0600000000000D+00  0.0000000000000D+00  0.0000000000000D+00
   208  2.0700000000000D+00  0.0000000000000D+00  0.0000000000000D+00
   209  2.0800000000000D+00  0.0000000000000D+00  0.0000000000000D+00
   210  2.0900000000000D+00  0.0000000000000D+00  0.0000000000000D+00
   211  2.1000000000000D+00  0.0000000000000D+00  0.0000000000000D+00
   212  2.1100000000000D+00  0.0000000000000D+00  0.0000000000000D+00
   213  2.1200000000000D+00  0.0000000000000D+00  0.0000000000000D+00
   214  2.1300000000000D+00  0.0000000000000D+00  0.0000000000000D+00
   215  2.1400000000000D+00  0.0000000000000D+00  0.0000000000000D+00
   216  2.1500000000000D+00  0.0000000000000D+00  0.0000000000000D+00
   217  2.1600000000000D+00  0.0000000000000D+00  0.0000000000000D+00
   218  2.1700000000000D+00  0.0000000000000D+00  0.0000000000000D+00
   219  2.1800000000000D+00  0.0000000000000D+00  0.0000000000000D+00
   220  2.1900000000000D+00  0.0000000000000D+00  0.0000000000000D+00
   221  2.2000000000000D+00  0.0000000000000D+00  0.0000000000000D+00
   222  2.2100000000000D+00  0.0000000000000D+00  0.0000000000000D+00
   223  2.2200000000000D+00  0.0000000000000D+00  0.0000000000000D+00
   224  2.2300000000000D+00  0.0000000000000D+00  0.0000000000000D+00
   225  2.2400000000000D+00  0.0000000000000D+00  0.0000000000000D+00
   226  2.2500000000000D+00  0.0000000000000D+00  0.0000000000000D+00
   227  2.2600000000000D+00  0.0000000000000D+00  0.0000000000000D+00
   228  2.2700000000000D+00  0.0000000000000D+00  0.0000000000000D+00
   229  2.2800000000000D+00  0.0000000000000D+00  0.0000000000000D+00
   230  2.2900000000000D+00  0.0000000000000D+00  0.0000000000000D+00
   231  2.3000000000000D+00  0.0000000000000D+00  0.0000000000000D+00
   232  2.3100000000000D+00  0.0000000000000D+00  0.0000000000000D+00
   233  2.3200000000000D+00  0.0000000000000D+00  0.0000000000000D+00
   234  2.3300000000000D+00  0.0000000000000D+00  0.0000000000000D+00
   235  2.3400000000000D+00  0.0000000000000D+00  0.0000000000000D+00
   236  2.3500000000000D+00  0.0000000000000D+00  0.0000000000000D+00
   237  2.3600000000000D+00  0.0000000000000D+00  0.0000000000000D+00
   238  2.3700000000000D+00  0.0000000000000D+00  0.0000000000000D+00
   239  2.3800000000000D+00  0.0000000000000D+00  0.0000000000000D+00
   240  2.3900000000000D+00  0.0000000000000D+00  0.0000000000000D+00
   241  2.4000000000000D+00  0.0000000000000D+00  0.0000000000000D+00
   242  2.4100000000000D+00  0.0000000000000D+00  0.0000000000000D+00
   243  2.4200000000000D+00  0.0000000000000D+00  0.0000000000000D+00
   244  2.4300000000000D+00  0.0000000000000D+00  0.0000000000000D+00
   245  2.4400000000000D+00  0.0000000000000D+00  0.0000000000000D+00
   246  2.4500000000000D+00  0.0000000000000D+00  0.0000000000000D+00
   247  2.4600000000000D+00  0.0000000000000D+00  0.0000000000000D+00
   248  2.4700000000000D+00  0.0000000000000D+00  0.0000000000000D+00
   249  2.4800000000000D+00  0.0000000000000D+00  0.0000000000000D+00
   250  2.4900000000000D+00  0.0000000000000D+00  0.0000000000000D+00
   251  2.5000000000000D+00  0.0000000000000D+00  0.0000000000000D+00
   252  2.5100000000000D+00  0.0000000000000D+00  0.0000000000000D+00
   253  2.5200000000000D+00  0.0000000000000D+00  0.0000000000000D+00
   254  2.5300000000000D+00  0.0000000000000D+00  0.0000000000000D+00
   255  2.5400000000000D+00  0.0000000000000D+00  0.0000000000000D+00
   256  2.5500000000000D+00  0.0000000000000D+00  0.0000000000000D+00
   257  2.5600000000000D+00  0.0000000000000D+00  0.0000000000000D+00
   258  2.5700000000000D+00  0.0000000000000D+00  0.0000000000000D+00
   259  2.5800000000000D+00  0.0000000000000D+00  0.0000000000000D+00
   260  2.5900000000000D+00  0.0000000000000D+00  0.0000000000000D+00
   261  2.6000000000000D+00  0.0000000000000D+00  0.0000000000000D+00
   262  2.6100000000000D+00  0.0000000000000D+00  0.0000000000000D+00
   263  2.6200000000000D+00  0.0000000000000D+00  0.0000000000000D+00
   264  2.6300000000000D+00  0.0000000000000D+00  0.0000000000000D+00
   265  2.6400000000000D+00  0.0000000000000D+00  0.0000000000000D+00
   266  2.6500000000000D+00  0.0000000000000D+00  0.0000000000000D+00
   267  2.6600000000000D+00  0.0000000000000D+00  0.0000000000000D+00
   268  2.6700000000000D+00  0.0000000000000D+00  0.0000000000000D+00
   269  2.6800000000000D+00  0.0000000000000D+00  0.0000000000000D+00
   270  2.6900000000000D+00  0.0000000000000D+00  0.0000000000000D+00
   271  2.7000000000000D+00  0.0000000000000D+00  0.0000000000000D+00
   272  2.7100000000000D+00  0.0000000000000D+00  0.0000000000000D+00
   273  2.7200000000000D+00  0.0000000000000D+00  0.0000000000000D+00
   274  2.7300000000000D+00  0.0000000000000D+00  0.0000000000000D+00
   275  2.7400000000000D+00  0.0000000000000D+00  0.0000000000000D+00
   276  2.7500000000000D+00  0.0000000000000D+00  0.0000000000000D+00
   277  2.7600000000000D+00  0.0000000000000D+00  0.0000000000000D+00
   278  2.7700000000000D+00  0.0000000000000D+00  0.0000000000000D+00
   279  2.7800000000000D+00  0.0000000000000D+00  0.0000000000000D+00
   280  2.7900000000000D+00  0.0000000000000D+00  0.0000000000000D+00
   281  2.8000000000000D+00  0.0000000000000D+00  0.0000000000000D+00
   282  2.8100000000000D+00  0.0000000000000D+00  0.0000000000000D+00
   283  2.8200000000000D+00  0.0000000000000D+00  0.0000000000000D+00
   284  2.8300000000000D+00  0.0000000000000D+00  0.0000000000000D+00
   285  2.8400000000000D+00  0.0000000000000D+00  0.0000000000000D+00
   286  2.8500000000000D+00  0.0000000000000D+00  0.0000000000000D+00
   287  2.8600000000000D+00  0.0000000000000D+00  0.0000000000000D+00
   288  2.8700000000000D+00  0.0000000000000D+00  0.0000000000000D+00
   289  2.8800000000000D+00  0.0000000000000D+00  0.0000000000000D+00
   290  2.8900000000000D+00  0.0000000000000D+00  0.0000000000000D+00
   291  2.9000000000000D+00  0.0000000000000D+00  0.0000000000000D+00
   292  2.9100000000000D+00  0.0000000000000D+00  0.0000000000000D+00
   293  2.9200000000000D+00  0.0000000000000D+00  0.0000000000000D+00
   294  2.9300000000000D+00  0.0000000000000D+00  0.0000000000000D+00
   295  2.9400000000000D+00  0.0000000000000D+00  0.0000000000000D+00
   296  2.9500000000000D+00  0.0000000000000D+00  0.0000000000000D+00
   297  2.9600000000000D+00  0.0000000000000D+00  0.0000000000000D+00
   298  2.9700000000000D+00  0.0000000000000D+00  0.0000000000000D+00
   299  2.9800000000000D+00  0.0000000000000D+00  0.0000000000000D+00
   300  2.9900000000000D+00  0.0000000000000D+00  0.0000000000000D+00
   301  3.0000000000000D+00  0.0000000000000D+00  0.0000000000000D+00
   302  3.0100000000000D+00  0.0000000000000D+00  0.0000000000000D+00
   303  3.0200000000000D+00  0.0000000000000D+00  0.0000000000000D+00
   304  3.0300000000000D+00  0.0000000000000D+00  0.0000000000000D+00
   305  3.0400000000000D+00  0.0000000000000D+00  0.0000000000000D+00
   306  3.0500000000000D+00  0.0000000000000D+00  0.0000000000000D+00
   307  3.0600000000000D+00  0.0000000000000D+00  0.0000000000000D+00
   308  3.0700000000000D+00  0.0000000000000D+00  0.0000000000000D+00
   309  3.0800000000000D+00  0.0000000000000D+00  0.0000000000000D+00
   310  3.0900000000000D+00  0.0000000000000D+00  0.0000000000000D+00
   311  3.1000000000000D+00  0.0000000000000D+00  0.0000000000000D+00
   312  3.1100000000000D+00  0.0000000000000D+00  0.0000000000000D+00
   313  3.1200000000000D+00  0.0000000000000D+00  0.0000000000000D+00
   314  3.1300000000000D+00  0.0000000000000D+00  0.0000000000000D+00
   315  3.1400000000000D+00  0.0000000000000D+00  0.0000000000000D+00
   316  3.1500000000000D+00  0.0000000000000D+00  0.0000000000000D+00
   317  3.1600000000000D+00  0.0000000000000D+00  0.0000000000000D+00
   318  3.1700000000000D+00  0.0000000000000D+00  0.0000000000000D+00
   319  3.1800000000000D+00  0.0000000000000D+00  0.0000000000000D+00
   320  3.1900000000000D+00  0.0000000000000D+00  0.0000000000000D+00
   321  3.2000000000000D+00  0.0000000000000D+00  0.0000000000000D+00
   322  3.2100000000000D+00  0.0000000000000D+00  0.0000000000000D+00
   323  3.2200000000000D+00  0.0000000000000D+00  0.0000000000000D+00
   324  3.2300000000000D+00  0.0000000000000D+00  0.0000000000000D+00
   325  3.2400000000000D+00  0.0000000000000D+00  0.0000000000000D+00
   326  3.2500000000000D+00  0.0000000000000D+00  0.0000000000000D+00
   327  3.2600000000000D+00  0.0000000000000D+00  0.0000000000000D+00
   328  3.2700000000000D+00  0.0000000000000D+00  0.0000000000000D+00
   329  3.2800000000000D+00  0.0000000000000D+00  0.0000000000000D+00
   330  3.2900000000000D+00  0.0000000000000D+00  0.0000000000000D+00
   331  3.3000000000000D+00  0.0000000000000D+00  0.0000000000000D+00
   332  3.3100000000000D+00  0.0000000000000D+00  0.0000000000000D+00
   333  3.3200000000000D+00  0.0000000000000D+00  0.0000000000000D+00
   334  3.3300000000000D+00  0.0000000000000D+00  0.0000000000000D+00
   335  3.3400000000000D+00  0.0000000000000D+00  0.0000000000000D+00
   336  3.3500000000000D+00  0.0000000000000D+00  0.0000000000000D+00
   337  3.3600000000000D+00  0.0000000000000D+00  0.0000000000000D+00
   338  3.3700000000000D+00  0.0000000000000D+00  0.0000000000000D+00
   339  3.3800000000000D+00  0.0000000000000D+00  0.0000000000000D+00
   340  3.3900000000000D+00  0.0000000000000D+00  0.0000000000000D+00
   341  3.4000000000000D+00  0.0000000000000D+00  0.0000000000000D+00
   342  3.4100000000000D+00  0.0000000000000D+00  0.0000000000000D+00
   343  3.4200000000000D+00  0.0000000000000D+00  0.0000000000000D+00
   344  3.4300000000000D+00  0.0000000000000D+00  0.0000000000000D+00
   345  3.4400000000000D+00  0.0000000000000D+00  0.0000000000000D+00
   346  3.4500000000000D+00  0.0000000000000D+00  0.0000000000000D+00
   347  3.4600000000000D+00  0.0000000000000D+00  0.0000000000000D+00
   348  3.4700000000000D+00  0.0000000000000D+00  0.0000000000000D+00
   349  3.4800000000000D+00  0.0000000000000D+00  0.0000000000000D+00
   350  3.4900000000000D+00  0.0000000000000D+00  0.0000000000000D+00
   351  3.5000000000000D+00  0.0000000000000D+00  0.0000000000000D+00
   352  3.5100000000000D+00  0.0000000000000D+00  0.0000000000000D+00
   353  3.5200000000000D+00  0.0000000000000D+00  0.0000000000000D+00
   354  3.5300000000000D+00  0.0000000000000D+00  0.0000000000000D+00
   355  3.5400000000000D+00  0.0000000000000D+00  0.0000000000000D+00
   356  3.5500000000000D+00  0.0000000000000D+00  0.0000000000000D+00
   357  3.5600000000000D+00  0.0000000000000D+00  0.0000000000000D+00
   358  3.5700000000000D+00  0.0000000000000D+00  0.0000000000000D+00
   359  3.5800000000000D+00  0.0000000000000D+00  0.0000000000000D+00
   360  3.5900000000000D+00  0.0000000000000D+00  0.0000000000000D+00
   361  3.6000000000000D+00  0.0000000000000D+00  0.0000000000000D+00
   362  3.6100000000000D+00  0.0000000000000D+00  0.0000000000000D+00
   363  3.6200000000000D+00  0.0000000000000D+00  0.0000000000000D+00
   364  3.6300000000000D+00  0.0000000000000D+00  0.0000000000000D+00
   365  3.6400000000000D+00  0.0000000000000D+00  0.0000000000000D+00
   366  3.6500000000000D+00  0.0000000000000D+00  0.0000000000000D+00
   367  3.6600000000000D+00  0.0000000000000D+00  0.0000000000000D+00
   368  3.6700000000000D+00  0.0000000000000D+00  0.0000000000000D+00
   369  3.6800000000000D+00  0.0000000000000D+00  0.0000000000000D+00
   370  3.6900000000000D+00  0.0000000000000D+00  0.0000000000000D+00
   371  3.7000000000000D+00  0.0000000000000D+00  0.0000000000000D+00
   372  3.7100000000000D+00  0.0000000000000D+00  0.0000000000000D+00
   373  3.7200000000000D+00  0.0000000000000D+00  0.0000000000000D+00
   374  3.7300000000000D+00  0.0000000000000D+00  0.0000000000000D+00
   375  3.7400000000000D+00  0.0000000000000D+00  0.0000000000000D+00
   376  3.7500000000000D+00  0.0000000000000D+00  0.0000000000000D+00
   377  3.7600000000000D+00  0.0000000000000D+00  0.0000000000000D+00
   378  3.7700000000000D+00  0.0000000000000D+00  0.0000000000000D+00
   379  3.7800000000000D+00  0.0000000000000D+00  0.0000000000000D+00
   380  3.7900000000000D+00  0.0000000000000D+00  0.0000000000000D+00
   381  3.8000000000000D+00  0.0000000000000D+00  0.0000000000000D+00
   382  3.8100000000000D+00  0.0000000000000D+00  0.0000000000000D+00
   383  3.8200000000000D+00  0.0000000000000D+00  0.0000000000000D+00
   384  3.8300000000000D+00  0.0000000000000D+00  0.0000000000000D+00
   385  3.8400000000000D+00  0.0000000000000D+00  0.0000000000000D+00
   386  3.8500000000000D+00  0.0000000000000D+00  0.0000000000000D+00
   387  3.8600000000000D+00  0.0000000000000D+00  0.0000000000000D+00
   388  3.8700000000000D+00  0.0000000000000D+00  0.0000000000000D+00
   389  3.8800000000000D+00  0.0000000000000D+00  0.0000000000000D+00
   390  3.8900000000000D+00  0.0000000000000D+00  0.0000000000000D+00
   391  3.9000000000000D+00  0.0000000000000D+00  0.0000000000000D+00
   392  3.9100000000000D+00  0.0000000000000D+00  0.0000000000000D+00
   393  3.9200000000000D+00  0.0000000000000D+00  0.0000000000000D+00
   394  3.9300000000000D+00  0.0000000000000D+00  0.0000000000000D+00
   395  3.9400000000000D+00  0.0000000000000D+00  0.0000000000000D+00
   396  3.9500000000000D+00  0.0000000000000D+00  0.0000000000000D+00
   397  3.9600000000000D+00  0.0000000000000D+00  0.0000000000000D+00
   398  3.9700000000000D+00  0.0000000000000D+00  0.0000000000000D+00
   399  3.9800000000000D+00  0.0000000000000D+00  0.0000000000000D+00
   400  3.9900000000000D+00  0.0000000000000D+00  0.0000000000000D+00
   401  4.0000000000000D+00  0.0000000000000D+00  0.0000000000000D+00
   402  4.0100000000000D+00  0.0000000000000D+00  0.0000000000000D+00
   403  4.0200000000000D+00  0.0000000000000D+00  0.0000000000000D+00
   404  4.0300000000000D+00  0.0000000000000D+00  0.0000000000000D+00
   405  4.0400000000000D+00  0.0000000000000D+00  0.0000000000000D+00
   406  4.0500000000000D+00  0.0000000000000D+00  0.0000000000000D+00
   407  4.0600000000000D+00  0.0000000000000D+00  0.0000000000000D+00
   408  4.0700000000000D+00  0.0000000000000D+00  0.0000000000000D+00
   409  4.0800000000000D+00  0.0000000000000D+00  0.0000000000000D+00
   410  4.0900000000000D+00  0.0000000000000D+00  0.0000000000000D+00
   411  4.1000000000000D+00  0.0000000000000D+00  0.0000000000000D+00
   412  4.1100000000000D+00  0.0000000000000D+00  0.0000000000000D+00
   413  4.1200000000000D+00  0.0000000000000D+00  0.0000000000000D+00
   414  4.1300000000000D+00  0.0000000000000D+00  0.0000000000000D+00
   415  4.1400000000000D+00  0.0000000000000D+00  0.0000000000000D+00
   416  4.1500000000000D+00  0.0000000000000D+00  0.0000000000000D+00
   417  4.1600000000000D+00  0.0000000000000D+00  0.0000000000000D+00
   418  4.1700000000000D+00  0.0000000000000D+00  0.0000000000000D+00
   419  4.1800000000000D+00  0.0000000000000D+00  0.0000000000000D+00
   420  4.1900000000000D+00  0.0000000000000D+00  0.0000000000000D+00
   421  4.2000000000000D+00  0.0000000000000D+00  0.0000000000000D+00
   422  4.2100000000000D+00  0.0000000000000D+00  0.0000000000000D+00