Al    ONCVPSP-3.3.0  r_core=   1.40948   1.60710   1.81071
     13.0000     11.0000      220408    zatom,zion,pspd
     8       2   2     4   600     0    pspcod,pspxc,lmax,lloc,mmax,r2well
  5.99000000  0.00000000  0.00000000    rchrg fchrg qchrg
     2     2     2     0     0    nproj
     1     1           extension_switch
   0                         1.4726567336945D+00 -1.0705388361006D+00
     1  0.0000000000000D+00 -7.1357830755403D-10  2.5542135073664D-10
     2  1.0000000000000D-02  1.1292979676462D-01  3.3487370454331D-02
     3  2.0000000000000D-02  2.2530574742584D-01  6.7016911219373D-02
     4  3.0000000000000D-02  3.3657716771043D-01  1.0063010766747D-01
     5  4.0000000000000D-02  4.4619967533203D-01  1.3436708185614D-01
     6  5.0000000000000D-02  5.5363828698379D-01  1.6826592720979D-01
     7  6.0000000000000D-02  6.5837045104065D-01  2.0236206262530D-01
     8  7.0000000000000D-02  7.5988899538605D-01  2.3668761217299D-01
     9  8.0000000000000D-02  8.5770497049174D-01  2.7127081630916D-01
    10  9.0000000000000D-02  9.5135036875681D-01  3.0613548020217D-01
    11  1.0000000000000D-01  1.0403807021461D+00  3.4130046440509D-01
    12  1.1000000000000D-01  1.1243774213471D+00  3.7677922268732D-01
    13  1.2000000000000D-01  1.2029501609770D+00  4.1257939137115D-01
    14  1.3000000000000D-01  1.2757387968028D+00  4.4870243401061D-01
    15  1.4000000000000D-01  1.3424153024784D+00  4.8514334470617D-01
    16  1.5000000000000D-01  1.4026853949277D+00  5.2189041277430D-01
    17  1.6000000000000D-01  1.4562899592097D+00  5.5892505089325D-01
    18  1.7000000000000D-01  1.5030062454579D+00  5.9622168823071D-01
    19  1.8000000000000D-01  1.5426488322918D+00  6.3374772943317D-01
    20  1.9000000000000D-01  1.5750703529167D+00  6.7146357972643D-01
    21  2.0000000000000D-01  1.6001619819615D+00  7.0932273574878D-01
    22  2.1000000000000D-01  1.6178536829173D+00  7.4727194112048D-01
    23  2.2000000000000D-01  1.6281142178275D+00  7.8525140514972D-01
    24  2.3000000000000D-01  1.6309509226240D+00  8.2319508249475D-01
    25  2.4000000000000D-01  1.6264092531793D+00  8.6103101104853D-01
    26  2.5000000000000D-01  1.6145721087525D+00  8.9868170479284D-01
    27  2.6000000000000D-01  1.5955589410155D+00  9.3606459788722D-01
    28  2.7000000000000D-01  1.5695246582602D+00  9.7309253582086D-01
    29  2.8000000000000D-01  1.5366583356765D+00  1.0096743090644D+00
    30  2.9000000000000D-01  1.4971817437690D+00  1.0457152243197D+00
    31  3.0000000000000D-01  1.4513477080127D+00  1.0811177081787D+00
    32  3.1000000000000D-01  1.3994383137493D+00  1.1157819377745D+00
    33  3.2000000000000D-01  1.3417629710807D+00  1.1496064928346D+00
    34  3.3000000000000D-01  1.2786563551212D+00  1.1824890234322D+00
    35  3.4000000000000D-01  1.2104762374294D+00  1.2143269276797D+00
    36  3.5000000000000D-01  1.1376012247476D+00  1.2450180336088D+00
    37  3.6000000000000D-01  1.0604284213382D+00  1.2744612795455D+00
    38  3.7000000000000D-01  9.7937103122605D-01  1.3025573874037D+00
    39  3.8000000000000D-01  8.9485591653136D-01  1.3292095234894D+00
    40  3.9000000000000D-01  8.0732112782902D-01  1.3543239416306D+00
    41  4.0000000000000D-01  7.1721342209026D-01  1.3778106037088D+00
    42  4.1000000000000D-01  6.2498578327331D-01  1.3995837729814D+00
    43  4.2000000000000D-01  5.3109496003338D-01  1.4195625759272D+00
    44  4.3000000000000D-01  4.3599903433282D-01  1.4376715287286D+00
    45  4.4000000000000D-01  3.4015503396346D-01  1.4538410249105D+00
    46  4.5000000000000D-01  2.4401660115363D-01  1.4680077810858D+00
    47  4.6000000000000D-01  1.4803172853879D-01  1.4801152382073D+00
    48  4.7000000000000D-01  5.2640572838282D-02  1.4901139161792D+00
    49  4.8000000000000D-01 -4.1726644385097D-02  1.4979617201523D+00
    50  4.9000000000000D-01 -1.3465164048703D-01  1.5036241972871D+00
    51  5.0000000000000D-01 -2.2572997261495D-01  1.5070747432322D+00
    52  5.1000000000000D-01 -3.1457282925807D-01  1.5082947580136D+00
    53  5.2000000000000D-01 -4.0080870699599D-01  1.5072737514664D+00
    54  5.3000000000000D-01 -4.8408496789237D-01  1.5040093987555D+00
    55  5.4000000000000D-01 -5.6406927386444D-01  1.4985075469237D+00
    56  5.5000000000000D-01 -6.4045089519594D-01  1.4907821737708D+00
    57  5.6000000000000D-01 -7.1294189113846D-01  1.4808553006993D+00
    58  5.7000000000000D-01 -7.8127816126552D-01  1.4687568614659D+00
    59  5.8000000000000D-01 -8.4522036689188D-01  1.4545245290411D+00
    60  5.9000000000000D-01 -9.0455472245293D-01  1.4382035030085D+00
    61  6.0000000000000D-01 -9.5909365724538D-01  1.4198462601289D+00
    62  6.1000000000000D-01 -1.0086763483687D+00  1.3995122708428D+00
    63  6.2000000000000D-01 -1.0531691260696D+00  1.3772676846043D+00
    64  6.3000000000000D-01 -1.0924657529898D+00  1.3531849870154D+00
    65  6.4000000000000D-01 -1.1264875790460D+00  1.3273426317712D+00
    66  6.5000000000000D-01 -1.1551835738414D+00  1.2998246504378D+00
    67  6.6000000000000D-01 -1.1785302386229D+00  1.2707202430578D+00
    68  6.7000000000000D-01 -1.1965313998627D+00  1.2401233525274D+00
    69  6.8000000000000D-01 -1.2092178865687D+00  1.2081322256107D+00
    70  6.9000000000000D-01 -1.2166470934190D+00  1.1748489633533D+00
    71  7.0000000000000D-01 -1.2189024317798D+00  1.1403790635385D+00
    72  7.1000000000000D-01 -1.2160926706181D+00  1.1048309576901D+00
    73  7.2000000000000D-01 -1.2083511692590D+00  1.0683155449778D+00
    74  7.3000000000000D-01 -1.1958350038795D+00  1.0309457252249D+00
    75  7.4000000000000D-01 -1.1787239895792D+00  9.9283593305324D-01
    76  7.5000000000000D-01 -1.1572195998357D+00  9.5410167503906D-01
    77  7.6000000000000D-01 -1.1315437851373D+00  9.1485907159193D-01
    78  7.7000000000000D-01 -1.1019376926056D+00  8.7522440511280D-01
    79  7.8000000000000D-01 -1.0686602884706D+00  8.3531367583990D-01
    80  7.9000000000000D-01 -1.0319868853510D+00  7.9524216665407D-01
    81  8.0000000000000D-01 -9.9220757642440D-01  7.5512401799134D-01
    82  8.1000000000000D-01 -9.4962557874598D-01  7.1507181390022D-01
    83  8.2000000000000D-01 -9.0455548819559D-01  6.7519618018769D-01
    84  8.3000000000000D-01 -8.5732144879327D-01  6.3560539551939D-01
    85  8.4000000000000D-01 -8.0825523942969D-01  5.9640501627927D-01
    86  8.5000000000000D-01 -7.5769428139979D-01  5.5769751594881D-01
    87  8.6000000000000D-01 -7.0597957050500D-01  5.1958193973792D-01
    88  8.7000000000000D-01 -6.5345353789547D-01  4.8215357518552D-01
    89  8.8000000000000D-01 -6.0045784425117D-01  4.4550363944784D-01
    90  8.9000000000000D-01 -5.4733111234355D-01  4.0971898400342D-01
    91  9.0000000000000D-01 -4.9440660346882D-01  3.7488181752504D-01
    92  9.1000000000000D-01 -4.4200984369115D-01  3.4106944769568D-01
    93  9.2000000000000D-01 -3.9045620626979D-01  3.0835404277849D-01
    94  9.3000000000000D-01 -3.4004845705973D-01  2.7680241378340D-01
    95  9.4000000000000D-01 -2.9107427005996D-01  2.4647581810582D-01
    96  9.5000000000000D-01 -2.4380372062894D-01  2.1742978554001D-01
    97  9.6000000000000D-01 -1.9848676418418D-01  1.8971396759065D-01
    98  9.7000000000000D-01 -1.5535070843914D-01  1.6337201101603D-01
    99  9.8000000000000D-01 -1.1459774486562D-01  1.3844144771937D-01
   100  9.9000000000000D-01 -7.6401557492650D-02  1.1495375327243D-01
   101  1.0000000000000D+00 -4.0910651676043D-02  9.2933413928424D-02
   102  1.0100000000000D+00 -8.2253112019518D-03  7.2401016508559D-02
   103  1.0200000000000D+00  2.1591251974122D-02  5.3371257825329D-02
   104  1.0300000000000D+00  4.8399341416302D-02  3.5835467271231D-02
   105  1.0400000000000D+00  7.2374983693844D-02  1.9819542325054D-02
   106  1.0500000000000D+00  9.3623637850366D-02  5.3252080173450D-03
   107  1.0600000000000D+00  1.1215292388899D-01 -7.6727790314066D-03
   108  1.0700000000000D+00  1.2804352955359D-01 -1.9199312881054D-02
   109  1.0800000000000D+00  1.4137544377232D-01 -2.9289659566535D-02
   110  1.0900000000000D+00  1.5224145541481D-01 -3.7986597253353D-02
   111  1.1000000000000D+00  1.6074516098878D-01 -4.5339963846378D-02
   112  1.1100000000000D+00  1.6700001227592D-01 -5.1406032706027D-02
   113  1.1200000000000D+00  1.7112847468873D-01 -5.6246862668076D-02
   114  1.1300000000000D+00  1.7326112309293D-01 -5.9929649292839D-02
   115  1.1400000000000D+00  1.7353570490399D-01 -6.2526073320038D-02
   116  1.1500000000000D+00  1.7209617076091D-01 -6.4111647219118D-02
   117  1.1600000000000D+00  1.6909167365921D-01 -6.4765060890711D-02
   118  1.1700000000000D+00  1.6467553824630D-01 -6.4567527806926D-02
   119  1.1800000000000D+00  1.5900420255563D-01 -6.3602133041401D-02
   120  1.1900000000000D+00  1.5223613545670D-01 -6.1953184922598D-02
   121  1.2000000000000D+00  1.4453073370204D-01 -5.9705572209327D-02
   122  1.2100000000000D+00  1.3604720303854D-01 -5.6944128849200D-02
   123  1.2200000000000D+00  1.2694342869856D-01 -5.3753008610712D-02
   124  1.2300000000000D+00  1.1737484118656D-01 -5.0215072029312D-02
   125  1.2400000000000D+00  1.0749328372471D-01 -4.6411288213393D-02
   126  1.2500000000000D+00  9.7445888230561D-02 -4.2420154186136D-02
   127  1.2600000000000D+00  8.7373967291404D-02 -3.8317134551592D-02
   128  1.2700000000000D+00  7.7411929692270D-02 -3.4174124262841D-02
   129  1.2800000000000D+00  6.7686227401867D-02 -3.0058937354652D-02
   130  1.2900000000000D+00  5.8314342143043D-02 -2.6034824458012D-02
   131  1.3000000000000D+00  4.9403819467585D-02 -2.2160021820914D-02
   132  1.3100000000000D+00  4.1051358541198D-02 -1.8487334619079D-02
   133  1.3200000000000D+00  3.3341965319961D-02 -1.5063757027869D-02
   134  1.3300000000000D+00  2.6348176618094D-02 -1.1930131476219D-02
   135  1.3400000000000D+00  2.0129362583946D-02 -9.1208494423437D-03
   136  1.3500000000000D+00  1.4731113672797D-02 -6.6635955579260D-03
   137  1.3600000000000D+00  1.0184751093962D-02 -4.5791486449927D-03
   138  1.3700000000000D+00  6.5092964823775D-03 -2.8820790868398D-03
   139  1.3800000000000D+00  3.6877498347145D-03 -1.5726903920367D-03
   140  1.3900000000000D+00  1.7354225866031D-03 -6.5968968981637D-04
   141  1.4000000000000D+00  6.8819724546283D-04 -1.5293604803006D-04
   142  1.4100000000000D+00  2.6340744917910D-04  2.9264096776503D-05
   143  1.4200000000000D+00  6.2589132387944D-05  2.8382543455007D-05
   144  1.4300000000000D+00 -1.0976246971783D-05 -7.6055005981034D-06
   145  1.4400000000000D+00 -5.9478753769104D-06 -5.4736373899073D-06
   146  1.4500000000000D+00  3.5351268775752D-06  1.9585057300951D-06
   147  1.4600000000000D+00  4.6113412283367D-07  2.8390032315523D-07
   148  1.4700000000000D+00 -7.8071731443891D-07 -7.1794437908602D-08
   149  1.4800000000000D+00  0.0000000000000D+00  0.0000000000000D+00
   150  1.4900000000000D+00  0.0000000000000D+00  0.0000000000000D+00
   151  1.5000000000000D+00  0.0000000000000D+00  0.0000000000000D+00
   152  1.5100000000000D+00  0.0000000000000D+00  0.0000000000000D+00
   153  1.5200000000000D+00  0.0000000000000D+00  0.0000000000000D+00
   154  1.5300000000000D+00  0.0000000000000D+00  0.0000000000000D+00
   155  1.5400000000000D+00  0.0000000000000D+00  0.0000000000000D+00
   156  1.5500000000000D+00  0.0000000000000D+00  0.0000000000000D+00
   157  1.5600000000000D+00  0.0000000000000D+00  0.0000000000000D+00
   158  1.5700000000000D+00  0.0000000000000D+00  0.0000000000000D+00
   159  1.5800000000000D+00  0.0000000000000D+00  0.0000000000000D+00
   160  1.5900000000000D+00  0.0000000000000D+00  0.0000000000000D+00
   161  1.6000000000000D+00  0.0000000000000D+00  0.0000000000000D+00
   162  1.6100000000000D+00  0.0000000000000D+00  0.0000000000000D+00
   163  1.6200000000000D+00  0.0000000000000D+00  0.0000000000000D+00
   164  1.6300000000000D+00  0.0000000000000D+00  0.0000000000000D+00
   165  1.6400000000000D+00  0.0000000000000D+00  0.0000000000000D+00
   166  1.6500000000000D+00  0.0000000000000D+00  0.0000000000000D+00
   167  1.6600000000000D+00  0.0000000000000D+00  0.0000000000000D+00
   168  1.6700000000000D+00  0.0000000000000D+00  0.0000000000000D+00
   169  1.6800000000000D+00  0.0000000000000D+00  0.0000000000000D+00
   170  1.6900000000000D+00  0.0000000000000D+00  0.0000000000000D+00
   171  1.7000000000000D+00  0.0000000000000D+00  0.0000000000000D+00
   172  1.7100000000000D+00  0.0000000000000D+00  0.0000000000000D+00
   173  1.7200000000000D+00  0.0000000000000D+00  0.0000000000000D+00
   174  1.7300000000000D+00  0.0000000000000D+00  0.0000000000000D+00
   175  1.7400000000000D+00  0.0000000000000D+00  0.0000000000000D+00
   176  1.7500000000000D+00  0.0000000000000D+00  0.0000000000000D+00
   177  1.7600000000000D+00  0.0000000000000D+00  0.0000000000000D+00
   178  1.7700000000000D+00  0.0000000000000D+00  0.0000000000000D+00
   179  1.7800000000000D+00  0.0000000000000D+00  0.0000000000000D+00
   180  1.7900000000000D+00  0.0000000000000D+00  0.0000000000000D+00
   181  1.8000000000000D+00  0.0000000000000D+00  0.0000000000000D+00
   182  1.8100000000000D+00  0.0000000000000D+00  0.0000000000000D+00
   183  1.8200000000000D+00  0.0000000000000D+00  0.0000000000000D+00
   184  1.8300000000000D+00  0.0000000000000D+00  0.0000000000000D+00
   185  1.8400000000000D+00  0.0000000000000D+00  0.0000000000000D+00
   186  1.8500000000000D+00  0.0000000000000D+00  0.0000000000000D+00
   187  1.8600000000000D+00  0.0000000000000D+00  0.0000000000000D+00
   188  1.8700000000000D+00  0.0000000000000D+00  0.0000000000000D+00
   189  1.8800000000000D+00  0.0000000000000D+00  0.0000000000000D+00
   190  1.8900000000000D+00  0.0000000000000D+00  0.0000000000000D+00
   191  1.9000000000000D+00  0.0000000000000D+00  0.0000000000000D+00
   192  1.9100000000000D+00  0.0000000000000D+00  0.0000000000000D+00
   193  1.9200000000000D+00  0.0000000000000D+00  0.0000000000000D+00
   194  1.9300000000000D+00  0.0000000000000D+00  0.0000000000000D+00
   195  1.9400000000000D+00  0.0000000000000D+00  0.0000000000000D+00
   196  1.9500000000000D+00  0.0000000000000D+00  0.0000000000000D+00
   197  1.9600000000000D+00  0.0000000000000D+00  0.0000000000000D+00
   198  1.9700000000000D+00  0.0000000000000D+00  0.0000000000000D+00
   199  1.9800000000000D+00  0.0000000000000D+00  0.0000000000000D+00
   200  1.9900000000000D+00  0.0000000000000D+00  0.0000000000000D+00
   201  2.0000000000000D+00  0.0000000000000D+00  0.0000000000000D+00
   202  2.0100000000000D+00  0.0000000000000D+00  0.0000000000000D+00
   203  2.0200000000000D+00  0.0000000000000D+00  0.0000000000000D+00
   204  2.0300000000000D+00  0.0000000000000D+00  0.0000000000000D+00
   205  2.0400000000000D+00  0.0000000000000D+00  0.0000000000000D+00
   206  2.0500000000000D+00  0.0000000000000D+00  0.0000000000000D+00
   207  2.0600000000000D+00  0.0000000000000D+00  0.0000000000000D+00
   208  2.0700000000000D+00  0.0000000000000D+00  0.0000000000000D+00
   209  2.0800000000000D+00  0.0000000000000D+00  0.0000000000000D+00
   210  2.0900000000000D+00  0.0000000000000D+00  0.0000000000000D+00
   211  2.1000000000000D+00  0.0000000000000D+00  0.0000000000000D+00
   212  2.1100000000000D+00  0.0000000000000D+00  0.0000000000000D+00
   213  2.1200000000000D+00  0.0000000000000D+00  0.0000000000000D+00
   214  2.1300000000000D+00  0.0000000000000D+00  0.0000000000000D+00
   215  2.1400000000000D+00  0.0000000000000D+00  0.0000000000000D+00
   216  2.1500000000000D+00  0.0000000000000D+00  0.0000000000000D+00
   217  2.1600000000000D+00  0.0000000000000D+00  0.0000000000000D+00
   218  2.1700000000000D+00  0.0000000000000D+00  0.0000000000000D+00
   219  2.1800000000000D+00  0.0000000000000D+00  0.0000000000000D+00
   220  2.1900000000000D+00  0.0000000000000D+00  0.0000000000000D+00
   221  2.2000000000000D+00  0.0000000000000D+00  0.0000000000000D+00
   222  2.2100000000000D+00  0.0000000000000D+00  0.0000000000000D+00
   223  2.2200000000000D+00  0.0000000000000D+00  0.0000000000000D+00
   224  2.2300000000000D+00  0.0000000000000D+00  0.0000000000000D+00
   225  2.2400000000000D+00  0.0000000000000D+00  0.0000000000000D+00
   226  2.2500000000000D+00  0.0000000000000D+00  0.0000000000000D+00
   227  2.2600000000000D+00  0.0000000000000D+00  0.0000000000000D+00
   228  2.2700000000000D+00  0.0000000000000D+00  0.0000000000000D+00
   229  2.2800000000000D+00  0.0000000000000D+00  0.0000000000000D+00
   230  2.2900000000000D+00  0.0000000000000D+00  0.0000000000000D+00
   231  2.3000000000000D+00  0.0000000000000D+00  0.0000000000000D+00
   232  2.3100000000000D+00  0.0000000000000D+00  0.0000000000000D+00
   233  2.3200000000000D+00  0.0000000000000D+00  0.0000000000000D+00
   234  2.3300000000000D+00  0.0000000000000D+00  0.0000000000000D+00
   235  2.3400000000000D+00  0.0000000000000D+00  0.0000000000000D+00
   236  2.3500000000000D+00  0.0000000000000D+00  0.0000000000000D+00
   237  2.3600000000000D+00  0.0000000000000D+00  0.0000000000000D+00
   238  2.3700000000000D+00  0.0000000000000D+00  0.0000000000000D+00
   239  2.3800000000000D+00  0.0000000000000D+00  0.0000000000000D+00
   240  2.3900000000000D+00  0.0000000000000D+00  0.0000000000000D+00
   241  2.4000000000000D+00  0.0000000000000D+00  0.0000000000000D+00
   242  2.4100000000000D+00  0.0000000000000D+00  0.0000000000000D+00
   243  2.4200000000000D+00  0.0000000000000D+00  0.0000000000000D+00
   244  2.4300000000000D+00  0.0000000000000D+00  0.0000000000000D+00
   245  2.4400000000000D+00  0.0000000000000D+00  0.0000000000000D+00
   246  2.4500000000000D+00  0.0000000000000D+00  0.0000000000000D+00
   247  2.4600000000000D+00  0.0000000000000D+00  0.0000000000000D+00
   248  2.4700000000000D+00  0.0000000000000D+00  0.0000000000000D+00
   249  2.4800000000000D+00  0.0000000000000D+00  0.0000000000000D+00
   250  2.4900000000000D+00  0.0000000000000D+00  0.0000000000000D+00
   251  2.5000000000000D+00  0.0000000000000D+00  0.0000000000000D+00
   252  2.5100000000000D+00  0.0000000000000D+00  0.0000000000000D+00
   253  2.5200000000000D+00  0.0000000000000D+00  0.0000000000000D+00
   254  2.5300000000000D+00  0.0000000000000D+00  0.0000000000000D+00
   255  2.5400000000000D+00  0.0000000000000D+00  0.0000000000000D+00
   256  2.5500000000000D+00  0.0000000000000D+00  0.0000000000000D+00
   257  2.5600000000000D+00  0.0000000000000D+00  0.0000000000000D+00
   258  2.5700000000000D+00  0.0000000000000D+00  0.0000000000000D+00
   259  2.5800000000000D+00  0.0000000000000D+00  0.0000000000000D+00
   260  2.5900000000000D+00  0.0000000000000D+00  0.0000000000000D+00
   261  2.6000000000000D+00  0.0000000000000D+00  0.0000000000000D+00
   262  2.6100000000000D+00  0.0000000000000D+00  0.0000000000000D+00
   263  2.6200000000000D+00  0.0000000000000D+00  0.0000000000000D+00
   264  2.6300000000000D+00  0.0000000000000D+00  0.0000000000000D+00
   265  2.6400000000000D+00  0.0000000000000D+00  0.0000000000000D+00
   266  2.6500000000000D+00  0.0000000000000D+00  0.0000000000000D+00
   267  2.6600000000000D+00  0.0000000000000D+00  0.0000000000000D+00
   268  2.6700000000000D+00  0.0000000000000D+00  0.0000000000000D+00
   269  2.6800000000000D+00  0.0000000000000D+00  0.0000000000000D+00
   270  2.6900000000000D+00  0.0000000000000D+00  0.0000000000000D+00
   271  2.7000000000000D+00  0.0000000000000D+00  0.0000000000000D+00
   272  2.7100000000000D+00  0.0000000000000D+00  0.0000000000000D+00
   273  2.7200000000000D+00  0.0000000000000D+00  0.0000000000000D+00
   274  2.7300000000000D+00  0.0000000000000D+00  0.0000000000000D+00
   275  2.7400000000000D+00  0.0000000000000D+00  0.0000000000000D+00
   276  2.7500000000000D+00  0.0000000000000D+00  0.0000000000000D+00
   277  2.7600000000000D+00  0.0000000000000D+00  0.0000000000000D+00
   278  2.7700000000000D+00  0.0000000000000D+00  0.0000000000000D+00
   279  2.7800000000000D+00  0.0000000000000D+00  0.0000000000000D+00
   280  2.7900000000000D+00  0.0000000000000D+00  0.0000000000000D+00
   281  2.8000000000000D+00  0.0000000000000D+00  0.0000000000000D+00
   282  2.8100000000000D+00  0.0000000000000D+00  0.0000000000000D+00
   283  2.8200000000000D+00  0.0000000000000D+00  0.0000000000000D+00
   284  2.8300000000000D+00  0.0000000000000D+00  0.0000000000000D+00
   285  2.8400000000000D+00  0.0000000000000D+00  0.0000000000000D+00
   286  2.8500000000000D+00  0.0000000000000D+00  0.0000000000000D+00
   287  2.8600000000000D+00  0.0000000000000D+00  0.0000000000000D+00
   288  2.8700000000000D+00  0.0000000000000D+00  0.0000000000000D+00
   289  2.8800000000000D+00  0.0000000000000D+00  0.0000000000000D+00
   290  2.8900000000000D+00  0.0000000000000D+00  0.0000000000000D+00
   291  2.9000000000000D+00  0.0000000000000D+00  0.0000000000000D+00
   292  2.9100000000000D+00  0.0000000000000D+00  0.0000000000000D+00
   293  2.9200000000000D+00  0.0000000000000D+00  0.0000000000000D+00
   294  2.9300000000000D+00  0.0000000000000D+00  0.0000000000000D+00
   295  2.9400000000000D+00  0.0000000000000D+00  0.0000000000000D+00
   296  2.9500000000000D+00  0.0000000000000D+00  0.0000000000000D+00
   297  2.9600000000000D+00  0.0000000000000D+00  0.0000000000000D+00
   298  2.9700000000000D+00  0.0000000000000D+00  0.0000000000000D+00
   299  2.9800000000000D+00  0.0000000000000D+00  0.0000000000000D+00
   300  2.9900000000000D+00  0.0000000000000D+00  0.0000000000000D+00
   301  3.0000000000000D+00  0.0000000000000D+00  0.0000000000000D+00
   302  3.0100000000000D+00  0.0000000000000D+00  0.0000000000000D+00
   303  3.0200000000000D+00  0.0000000000000D+00  0.0000000000000D+00
   304  3.0300000000000D+00  0.0000000000000D+00  0.0000000000000D+00
   305  3.0400000000000D+00  0.0000000000000D+00  0.0000000000000D+00
   306  3.0500000000000D+00  0.0000000000000D+00  0.0000000000000D+00
   307  3.0600000000000D+00  0.0000000000000D+00  0.0000000000000D+00
   308  3.0700000000000D+00  0.0000000000000D+00  0.0000000000000D+00
   309  3.0800000000000D+00  0.0000000000000D+00  0.0000000000000D+00
   310  3.0900000000000D+00  0.0000000000000D+00  0.0000000000000D+00
   311  3.1000000000000D+00  0.0000000000000D+00  0.0000000000000D+00
   312  3.1100000000000D+00  0.0000000000000D+00  0.0000000000000D+00
   313  3.1200000000000D+00  0.0000000000000D+00  0.0000000000000D+00
   314  3.1300000000000D+00  0.0000000000000D+00  0.0000000000000D+00
   315  3.1400000000000D+00  0.0000000000000D+00  0.0000000000000D+00
   316  3.1500000000000D+00  0.0000000000000D+00  0.0000000000000D+00
   317  3.1600000000000D+00  0.0000000000000D+00  0.0000000000000D+00
   318  3.1700000000000D+00  0.0000000000000D+00  0.0000000000000D+00
   319  3.1800000000000D+00  0.0000000000000D+00  0.0000000000000D+00
   320  3.1900000000000D+00  0.0000000000000D+00  0.0000000000000D+00
   321  3.2000000000000D+00  0.0000000000000D+00  0.0000000000000D+00
   322  3.2100000000000D+00  0.0000000000000D+00  0.0000000000000D+00
   323  3.2200000000000D+00  0.0000000000000D+00  0.0000000000000D+00
   324  3.2300000000000D+00  0.0000000000000D+00  0.0000000000000D+00
   325  3.2400000000000D+00  0.0000000000000D+00  0.0000000000000D+00
   326  3.2500000000000D+00  0.0000000000000D+00  0.0000000000000D+00
   327  3.2600000000000D+00  0.0000000000000D+00  0.0000000000000D+00
   328  3.2700000000000D+00  0.0000000000000D+00  0.0000000000000D+00
   329  3.2800000000000D+00  0.0000000000000D+00  0.0000000000000D+00
   330  3.2900000000000D+00  0.0000000000000D+00  0.0000000000000D+00
   331  3.3000000000000D+00  0.0000000000000D+00  0.0000000000000D+00
   332  3.3100000000000D+00  0.0000000000000D+00  0.0000000000000D+00
   333  3.3200000000000D+00  0.0000000000000D+00  0.0000000000000D+00
   334  3.3300000000000D+00  0.0000000000000D+00  0.0000000000000D+00
   335  3.3400000000000D+00  0.0000000000000D+00  0.0000000000000D+00
   336  3.3500000000000D+00  0.0000000000000D+00  0.0000000000000D+00
   337  3.3600000000000D+00  0.0000000000000D+00  0.0000000000000D+00
   338  3.3700000000000D+00  0.0000000000000D+00  0.0000000000000D+00
   339  3.3800000000000D+00  0.0000000000000D+00  0.0000000000000D+00
   340  3.3900000000000D+00  0.0000000000000D+00  0.0000000000000D+00
   341  3.4000000000000D+00  0.0000000000000D+00  0.0000000000000D+00
   342  3.4100000000000D+00  0.0000000000000D+00  0.0000000000000D+00
   343  3.4200000000000D+00  0.0000000000000D+00  0.0000000000000D+00
   344  3.4300000000000D+00  0.0000000000000D+00  0.0000000000000D+00
   345  3.4400000000000D+00  0.0000000000000D+00  0.0000000000000D+00
   346  3.4500000000000D+00  0.0000000000000D+00  0.0000000000000D+00
   347  3.4600000000000D+00  0.0000000000000D+00  0.0000000000000D+00
   348  3.4700000000000D+00  0.0000000000000D+00  0.0000000000000D+00
   349  3.4800000000000D+00  0.0000000000000D+00  0.0000000000000D+00
   350  3.4900000000000D+00  0.0000000000000D+00  0.0000000000000D+00
   351  3.5000000000000D+00  0.0000000000000D+00  0.0000000000000D+00
   352  3.5100000000000D+00  0.0000000000000D+00  0.0000000000000D+00
   353  3.5200000000000D+00  0.0000000000000D+00  0.0000000000000D+00
   354  3.5300000000000D+00  0.0000000000000D+00  0.0000000000000D+00
   355  3.5400000000000D+00  0.0000000000000D+00  0.0000000000000D+00
   356  3.5500000000000D+00  0.0000000000000D+00  0.0000000000000D+00
   357  3.5600000000000D+00  0.0000000000000D+00  0.0000000000000D+00
   358  3.5700000000000D+00  0.0000000000000D+00  0.0000000000000D+00
   359  3.5800000000000D+00  0.0000000000000D+00  0.0000000000000D+00
   360  3.5900000000000D+00  0.0000000000000D+00  0.0000000000000D+00
   361  3.6000000000000D+00  0.0000000000000D+00  0.0000000000000D+00
   362  3.6100000000000D+00  0.0000000000000D+00  0.0000000000000D+00
   363  3.6200000000000D+00  0.0000000000000D+00  0.0000000000000D+00
   364  3.6300000000000D+00  0.0000000000000D+00  0.0000000000000D+00
   365  3.6400000000000D+00  0.0000000000000D+00  0.0000000000000D+00
   366  3.6500000000000D+00  0.0000000000000D+00  0.0000000000000D+00
   367  3.6600000000000D+00  0.0000000000000D+00  0.0000000000000D+00
   368  3.6700000000000D+00  0.0000000000000D+00  0.0000000000000D+00
   369  3.6800000000000D+00  0.0000000000000D+00  0.0000000000000D+00
   370  3.6900000000000D+00  0.0000000000000D+00  0.0000000000000D+00
   371  3.7000000000000D+00  0.0000000000000D+00  0.0000000000000D+00
   372  3.7100000000000D+00  0.0000000000000D+00  0.0000000000000D+00
   373  3.7200000000000D+00  0.0000000000000D+00  0.0000000000000D+00
   374  3.7300000000000D+00  0.0000000000000D+00  0.0000000000000D+00
   375  3.7400000000000D+00  0.0000000000000D+00  0.0000000000000D+00
   376  3.7500000000000D+00  0.0000000000000D+00  0.0000000000000D+00
   377  3.7600000000000D+00  0.0000000000000D+00  0.0000000000000D+00
   378  3.7700000000000D+00  0.0000000000000D+00  0.0000000000000D+00
   379  3.7800000000000D+00  0.0000000000000D+00  0.0000000000000D+00
   380  3.7900000000000D+00  0.0000000000000D+00  0.0000000000000D+00
   381  3.8000000000000D+00  0.0000000000000D+00  0.0000000000000D+00
   382  3.8100000000000D+00  0.0000000000000D+00  0.0000000000000D+00
   383  3.8200000000000D+00  0.0000000000000D+00  0.0000000000000D+00
   384  3.8300000000000D+00  0.0000000000000D+00  0.0000000000000D+00
   385  3.8400000000000D+00  0.0000000000000D+00  0.0000000000000D+00
   386  3.8500000000000D+00  0.0000000000000D+00  0.0000000000000D+00
   387  3.8600000000000D+00  0.0000000000000D+00  0.0000000000000D+00
   388  3.8700000000000D+00  0.0000000000000D+00  0.0000000000000D+00
   389  3.8800000000000D+00  0.0000000000000D+00  0.0000000000000D+00
   390  3.8900000000000D+00  0.0000000000000D+00  0.0000000000000D+00
   391  3.9000000000000D+00  0.0000000000000D+00  0.0000000000000D+00
   392  3.9100000000000D+00  0.0000000000000D+00  0.0000000000000D+00
   393  3.9200000000000D+00  0.0000000000000D+00  0.0000000000000D+00
   394  3.9300000000000D+00  0.0000000000000D+00  0.0000000000000D+00
   395  3.9400000000000D+00  0.0000000000000D+00  0.0000000000000D+00
   396  3.9500000000000D+00  0.0000000000000D+00  0.0000000000000D+00
   397  3.9600000000000D+00  0.0000000000000D+00  0.0000000000000D+00
   398  3.9700000000000D+00  0.0000000000000D+00  0.0000000000000D+00
   399  3.9800000000000D+00  0.0000000000000D+00  0.0000000000000D+00
   400  3.9900000000000D+00  0.0000000000000D+00  0.0000000000000D+00
   401  4.0000000000000D+00  0.0000000000000D+00  0.0000000000000D+00
   402  4.0100000000000D+00  0.0000000000000D+00  0.0000000000000D+00
   403  4.0200000000000D+00  0.0000000000000D+00  0.0000000000000D+00
   404  4.0300000000000D+00  0.0000000000000D+00  0.0000000000000D+00
   405  4.0400000000000D+00  0.0000000000000D+00  0.0000000000000D+00
   406  4.0500000000000D+00  0.0000000000000D+00  0.0000000000000D+00
   407  4.0600000000000D+00  0.0000000000000D+00  0.0000000000000D+00
   408  4.0700000000000D+00  0.0000000000000D+00  0.0000000000000D+00
   409  4.0800000000000D+00  0.0000000000000D+00  0.0000000000000D+00
   410  4.0900000000000D+00  0.0000000000000D+00  0.0000000000000D+00
   411  4.1000000000000D+00  0.0000000000000D+00  0.0000000000000D+00
   412  4.1100000000000D+00  0.0000000000000D+00  0.0000000000000D+00
   413  4.1200000000000D+00  0.0000000000000D+00  0.0000000000000D+00
   414  4.1300000000000D+00  0.0000000000000D+00  0.0000000000000D+00
   415  4.1400000000000D+00  0.0000000000000D+00  0.0000000000000D+00
   416  4.1500000000000D+00  0.0000000000000D+00  0.0000000000000D+00
   417  4.1600000000000D+00  0.0000000000000D+00  0.0000000000000D+00
   418  4.1700000000000D+00  0.0000000000000D+00  0.0000000000000D+00
   419  4.1800000000000D+00  0.0000000000000D+00  0.0000000000000D+00
   420  4.1900000000000D+00  0.0000000000000D+00  0.0000000000000D+00
   421  4.2000000000000D+00  0.0000000000000D+00  0.0000000000000D+00
   422  4.2100000000000D+00  0.0000000000000D+00  0.0000000000000D+00