Al    ONCVPSP-3.3.0  r_core=   1.76802   1.76802   1.70587
     13.0000      3.0000      220408    zatom,zion,pspd
     8       2   2     4   600     0    pspcod,pspxc,lmax,lloc,mmax,r2well
  5.99000000  0.00000000  0.00000000    rchrg fchrg qchrg
     2     2     2     0     0    nproj
     1     1           extension_switch
   0                         5.7246880138586D+00  7.2623232749216D-01
     1  0.0000000000000D+00 -1.3163564405172D-09  3.3239764135606D-09
     2  1.0000000000000D-02  2.6861155073703D-02 -1.5796056617497D-02
     3  2.0000000000000D-02  5.3611240544870D-02 -3.1307245962599D-02
     4  3.0000000000000D-02  8.0140877942272D-02 -4.6253038802320D-02
     5  4.0000000000000D-02  1.0634404650383D-01 -6.0361519853143D-02
     6  5.0000000000000D-02  1.3211970098807D-01 -7.3373540292247D-02
     7  6.0000000000000D-02  1.5737331718258D-01 -8.5046687308364D-02
     8  7.0000000000000D-02  1.8201834257620D-01 -9.5159013663942D-02
     9  8.0000000000000D-02  2.0597753097785D-01 -1.0351247356424D-01
    10  9.0000000000000D-02  2.2918414147696D-01 -1.0993601519908D-01
    11  1.0000000000000D-01  2.5158298402573D-01 -1.1428828508358D-01
    12  1.1000000000000D-01  2.7313129605703D-01 -1.1645990471192D-01
    13  1.2000000000000D-01  2.9379943690470D-01 -1.1637528597852D-01
    14  1.3000000000000D-01  3.1357138933304D-01 -1.1399395823508D-01
    15  1.4000000000000D-01  3.3244506017528D-01 -1.0931138665154D-01
    16  1.5000000000000D-01  3.5043237489030D-01 -1.0235926864207D-01
    17  1.6000000000000D-01  3.6755916373433D-01 -9.3205302407777D-02
    18  1.7000000000000D-01  3.8386484017061D-01 -8.1952429035556D-02
    19  1.8000000000000D-01  3.9940187506510D-01 -6.8737556977680D-02
    20  1.9000000000000D-01  4.1423507310047D-01 -5.3729785017603D-02
    21  2.0000000000000D-01  4.2844066064394D-01 -3.7128146904343D-02
    22  2.1000000000000D-01  4.4210519698854D-01 -1.9158907613956D-02
    23  2.2000000000000D-01  4.5532432341588D-01 -7.2447577883945D-05
    24  2.3000000000000D-01  4.6820136686474D-01  1.9860222883706D-02
    25  2.4000000000000D-01  4.8084581710344D-01  4.0351271351598D-02
    26  2.5000000000000D-01  4.9337169816381D-01  6.1100121054442D-02
    27  2.6000000000000D-01  5.0589585637447D-01  8.1797742319083D-02
    28  2.7000000000000D-01  5.1853618861041D-01  1.0213109824434D-01
    29  2.8000000000000D-01  5.3140983533264D-01  1.2178768270255D-01
    30  2.9000000000000D-01  5.4463136361537D-01  1.4046008720181D-01
    31  3.0000000000000D-01  5.5831096563612D-01  1.5785053244056D-01
    32  3.1000000000000D-01  5.7255269803273D-01  1.7367530056840D-01
    33  3.2000000000000D-01  5.8745278710960D-01  1.8766900523110D-01
    34  3.3000000000000D-01  6.0309802410791D-01  1.9958863841739D-01
    35  3.4000000000000D-01  6.1956427364962D-01  2.0921733591205D-01
    36  3.5000000000000D-01  6.3691511703783D-01  2.1636780676375D-01
    37  3.6000000000000D-01  6.5520065036179D-01  2.2088537655027D-01
    38  3.7000000000000D-01  6.7445645533950D-01  2.2265059930981D-01
    39  3.8000000000000D-01  6.9470275855669D-01  2.2158139874257D-01
    40  3.9000000000000D-01  7.1594379226105D-01  2.1763470559304D-01
    41  4.0000000000000D-01  7.3816736717533D-01  2.1080756491941D-01
    42  4.1000000000000D-01  7.6134466494054D-01  2.0113769414954D-01
    43  4.2000000000000D-01  7.8543025482635D-01  1.8870348031990D-01
    44  4.3000000000000D-01  8.1036233629238D-01  1.7362341258997D-01
    45  4.4000000000000D-01  8.3606320589102D-01  1.5605495391962D-01
    46  4.5000000000000D-01  8.6243994391212D-01  1.3619286358130D-01
    47  4.6000000000000D-01  8.8938531312441D-01  1.1426698984986D-01
    48  4.7000000000000D-01  9.1677885901034D-01  9.0539559660808D-02
    49  4.8000000000000D-01  9.4448819805947D-01  6.5301999153810D-02
    50  4.9000000000000D-01  9.7237047802155D-01  3.8871325719970D-02
    51  5.0000000000000D-01  1.0002739915604D+00  1.1586158356113D-02
    52  5.1000000000000D-01  1.0280399225282D+00 -1.6197601290689D-02
    53  5.2000000000000D-01  1.0555042021298D+00 -4.4111359908638D-02
    54  5.3000000000000D-01  1.0824994505944D+00 -7.1778634120633D-02
    55  5.4000000000000D-01  1.1088569786430D+00 -9.8819997955971D-02
    56  5.5000000000000D-01  1.1344088220570D+00 -1.2485810900083D-01
    57  5.6000000000000D-01  1.1589897820239D+00 -1.4952274448572D-01
    58  5.7000000000000D-01  1.1824394436822D+00 -1.7245577795490D-01
    59  5.8000000000000D-01  1.2046041454039D+00 -1.9331602749717D-01
    60  5.9000000000000D-01  1.2253388718534D+00 -2.1178390780608D-01
    61  6.0000000000000D-01  1.2445090447213D+00 -2.2756582055437D-01
    62  6.1000000000000D-01  1.2619921862716D+00 -2.4039822072267D-01
    63  6.2000000000000D-01  1.2776794324097D+00 -2.5005130051741D-01
    64  6.3000000000000D-01  1.2914768738955D+00 -2.5633223738781D-01
    65  6.4000000000000D-01  1.3033067065336D+00 -2.5908795825114D-01
    66  6.5000000000000D-01  1.3131081736633D+00 -2.5820737835147D-01
    67  6.6000000000000D-01  1.3208382870132D+00 -2.5362308012754D-01
    68  6.7000000000000D-01  1.3264723149245D+00 -2.4531240490690D-01
    69  6.8000000000000D-01  1.3300040300641D+00 -2.3329793813143D-01
    70  6.9000000000000D-01  1.3314457120000D+00 -2.1764737704907D-01
    71  7.0000000000000D-01  1.3308279033430D+00 -1.9847277822263D-01
    72  7.1000000000000D-01  1.3281989215270D+00 -1.7592919072676D-01
    73  7.2000000000000D-01  1.3236241316756D+00 -1.5021268942585D-01
    74  7.3000000000000D-01  1.3171849893232D+00 -1.2155783111324D-01
    75  7.4000000000000D-01  1.3089778649794D+00 -9.0234564414589D-02
    76  7.5000000000000D-01  1.2991126656075D+00 -5.6544632138947D-02
    77  7.6000000000000D-01  1.2877112709947D+00 -2.0817512076839D-02
    78  7.7000000000000D-01  1.2749058056514D+00  1.6594051046751D-02
    79  7.8000000000000D-01  1.2608367693053D+00  5.5318863654760D-02
    80  7.9000000000000D-01  1.2456510511588D+00  9.4972387341320D-02
    81  8.0000000000000D-01  1.2294998548651D+00  1.3516206025775D-01
    82  8.1000000000000D-01  1.2125365626093D+00  1.7549276371143D-01
    83  8.2000000000000D-01  1.1949145677277D+00  2.1557235921488D-01
    84  8.3000000000000D-01  1.1767851059570D+00  2.5501721961043D-01
    85  8.4000000000000D-01  1.1582951156510D+00  2.9345767731768D-01
    86  8.5000000000000D-01  1.1395851571339D+00  3.3054331322038D-01
    87  8.6000000000000D-01  1.1207874207822D+00  3.6594801123030D-01
    88  8.7000000000000D-01  1.1020238524286D+00  3.9937470612604D-01
    89  8.8000000000000D-01  1.0834044232950D+00  4.3055975583636D-01
    90  8.9000000000000D-01  1.0650255698780D+00  4.5927687388391D-01
    91  9.0000000000000D-01  1.0469688270744D+00  4.8534056316838D-01
    92  9.1000000000000D-01  1.0292996753535D+00  5.0860899858474D-01
    93  9.2000000000000D-01  1.0120666199984D+00  5.2898631306200D-01
    94  9.3000000000000D-01  9.9530051738382D-01  5.4642424938074D-01
    95  9.4000000000000D-01  9.7901415997048D-01  5.6092314848511D-01
    96  9.5000000000000D-01  9.6320212822556D-01  5.7253225382366D-01
    97  9.6000000000000D-01  9.4784091403197D-01  5.8134932051491D-01
    98  9.7000000000000D-01  9.3288931649067D-01  5.8751952742219D-01
    99  9.8000000000000D-01  9.1828910721436D-01  5.9123369988126D-01
   100  9.9000000000000D-01  9.0396595846238D-01  5.9272586033333D-01
   101  1.0000000000000D+00  8.8983062378861D-01  5.9227013344508D-01
   102  1.0100000000000D+00  8.7578035727073D-01  5.9017704143218D-01
   103  1.0200000000000D+00  8.6170055396768D-01  5.8678923397589D-01
   104  1.0300000000000D+00  8.4746659097141D-01  5.8247670543399D-01
   105  1.0400000000000D+00  8.3294584556074D-01  5.7763155928705D-01
   106  1.0500000000000D+00  8.1799986415596D-01  5.7266238687332D-01
   107  1.0600000000000D+00  8.0248665345986D-01  5.6798833331845D-01
   108  1.0700000000000D+00  7.8626306320818D-01  5.6403292852926D-01
   109  1.0800000000000D+00  7.6918722832538D-01  5.6121776523208D-01
   110  1.0900000000000D+00  7.5112103717377D-01  5.5995610882973D-01
   111  1.1000000000000D+00  7.3193259177080D-01  5.6064652589855D-01
   112  1.1100000000000D+00  7.1149862561297D-01  5.6366661872789D-01
   113  1.1200000000000D+00  6.8970684492698D-01  5.6936695282870D-01
   114  1.1300000000000D+00  6.6645815997138D-01  5.7806526228441D-01
   115  1.1400000000000D+00  6.4166877371038D-01  5.9004101603560D-01
   116  1.1500000000000D+00  6.1527209719842D-01  6.0553042305512D-01
   117  1.1600000000000D+00  5.8722046274679D-01  6.2472194996774D-01
   118  1.1700000000000D+00  5.5748660864217D-01  6.4775241781122D-01
   119  1.1800000000000D+00  5.2606491112452D-01  6.7470373971327D-01
   120  1.1900000000000D+00  4.9297234353432D-01  7.0560035058938D-01
   121  1.2000000000000D+00  4.5824914567091D-01  7.4040737201907D-01
   122  1.2100000000000D+00  4.2195918927179D-01  7.7902954817929D-01
   123  1.2200000000000D+00  3.8419003022948D-01  8.2131097677036D-01
   124  1.2300000000000D+00  3.4505264251192D-01  8.6703564783864D-01
   125  1.2400000000000D+00  3.0468083229355D-01  9.1592879441872D-01
   126  1.2500000000000D+00  2.6323033431739D-01  9.6765905000582D-01
   127  1.2600000000000D+00  2.2087759898846D-01  1.0218413914395D+00
   128  1.2700000000000D+00  1.7781828134995D-01  1.0780408390574D+00
   129  1.2800000000000D+00  1.3426544580196D-01  1.1357768791109D+00
   130  1.2900000000000D+00  9.0447508000120D-02  1.1945285542243D+00
   131  1.3000000000000D+00  4.6605936225126D-02  1.2537401655183D+00
   132  1.3100000000000D+00  2.9927373793280D-03  1.3128275227515D+00
   133  1.3200000000000D+00 -4.0132240573695D-02  1.3711846619594D+00
   134  1.3300000000000D+00 -8.2504158974416D-02  1.4281909527639D+00
   135  1.3400000000000D+00 -1.2385615694559D-01  1.4832185075415D+00
   136  1.3500000000000D+00 -1.6392240020630D-01  1.5356397968243D+00
   137  1.3600000000000D+00 -2.0244117377279D-01  1.5848353786488D+00
   138  1.3700000000000D+00 -2.3915797804821D-01  1.6302016379222D+00
   139  1.3800000000000D+00 -2.7382858997118D-01  1.6711584427228D+00
   140  1.3900000000000D+00 -3.0622204959318D-01  1.7071566253438D+00
   141  1.4000000000000D+00 -3.3612353154814D-01  1.7376851848048D+00
   142  1.4100000000000D+00 -3.6333706366977D-01  1.7622778610635D+00
   143  1.4200000000000D+00 -3.8768806514218D-01  1.7805200378959D+00
   144  1.4300000000000D+00 -4.0902567288587D-01  1.7920553340028D+00
   145  1.4400000000000D+00 -4.2722485404251D-01  1.7965917057793D+00
   146  1.4500000000000D+00 -4.4218824344826D-01  1.7939066057793D+00
   147  1.4600000000000D+00 -4.5384768013616D-01  1.7838506700979D+00
   148  1.4700000000000D+00 -4.6216541537243D-01  1.7663508301345D+00
   149  1.4800000000000D+00 -4.6713498201953D-01  1.7414125491830D+00
   150  1.4900000000000D+00 -4.6878169776594D-01  1.7091211187696D+00
   151  1.5000000000000D+00 -4.6716280980810D-01  1.6696420458845D+00
   152  1.5100000000000D+00 -4.6236725791827D-01  1.6232204726420D+00
   153  1.5200000000000D+00 -4.5451506887217D-01  1.5701796612343D+00
   154  1.5300000000000D+00 -4.4375637841876D-01  1.5109185340542D+00
   155  1.5400000000000D+00 -4.3027008927743D-01  1.4459082903918D+00
   156  1.5500000000000D+00 -4.1426218530729D-01  1.3756881507023D+00
   157  1.5600000000000D+00 -3.9596370454959D-01  1.3008602351625D+00
   158  1.5700000000000D+00 -3.7562841311897D-01  1.2220836829404D+00
   159  1.5800000000000D+00 -3.5353018010438D-01  1.1400680124510D+00
   160  1.5900000000000D+00 -3.2996010920897D-01  1.0555658639336D+00
   161  1.6000000000000D+00 -3.0522343344883D-01  9.6936514026064D-01
   162  1.6100000000000D+00 -2.7963623069134D-01  8.8228069251989D-01
   163  1.6200000000000D+00 -2.5352197896352D-01  7.9514559829440D-01
   164  1.6300000000000D+00 -2.2720800549578D-01  7.0880216949459D-01
   165  1.6400000000000D+00 -2.0102185984562D-01  6.2409276663797D-01
   166  1.6500000000000D+00 -1.7528766103550D-01  5.4185054620360D-01
   167  1.6600000000000D+00 -1.5032245583320D-01  4.6289023517852D-01
   168  1.6700000000000D+00 -1.2643263473838D-01  3.8799905087059D-01
   169  1.6800000000000D+00 -1.0391044508643D-01  3.1792786590609D-01
   170  1.6900000000000D+00 -8.3030644218796D-02  2.5338272731958D-01
   171  1.7000000000000D+00 -6.4047331307388D-02  1.9501682757470D-01
   172  1.7100000000000D+00 -4.7198520227649D-02  1.4344584150274D-01
   173  1.7200000000000D+00 -3.2677884803530D-02  9.9163588606898D-02
   174  1.7300000000000D+00 -2.0607958952245D-02  6.2462180159137D-02
   175  1.7400000000000D+00 -1.1198682652395D-02  3.3913182652796D-02
   176  1.7500000000000D+00 -4.7666720985288D-03  1.4426389873501D-02
   177  1.7600000000000D+00 -1.2215890915138D-03  3.6963190442406D-03
   178  1.7700000000000D+00  1.6729104391782D-04 -5.0465872187222D-04
   179  1.7800000000000D+00  2.8745876633038D-04 -8.6829508556354D-04
   180  1.7900000000000D+00 -1.4996441223078D-05  4.5317834509962D-05
   181  1.8000000000000D+00 -1.0071483861506D-04  3.0433386098887D-04
   182  1.8100000000000D+00 -9.1014530317617D-06  2.7500343228443D-05
   183  1.8200000000000D+00  1.8324792233203D-05 -5.5434253327963D-05
   184  1.8300000000000D+00  6.0093718817437D-06 -1.8179434268442D-05
   185  1.8400000000000D+00 -5.6241676592079D-08  1.6686198327289D-07
   186  1.8500000000000D+00 -3.4165621862126D-08  1.0136510447608D-07
   187  1.8600000000000D+00  0.0000000000000D+00  0.0000000000000D+00
   188  1.8700000000000D+00  0.0000000000000D+00  0.0000000000000D+00
   189  1.8800000000000D+00  0.0000000000000D+00  0.0000000000000D+00
   190  1.8900000000000D+00  0.0000000000000D+00  0.0000000000000D+00
   191  1.9000000000000D+00  0.0000000000000D+00  0.0000000000000D+00
   192  1.9100000000000D+00  0.0000000000000D+00  0.0000000000000D+00
   193  1.9200000000000D+00  0.0000000000000D+00  0.0000000000000D+00
   194  1.9300000000000D+00  0.0000000000000D+00  0.0000000000000D+00
   195  1.9400000000000D+00  0.0000000000000D+00  0.0000000000000D+00
   196  1.9500000000000D+00  0.0000000000000D+00  0.0000000000000D+00
   197  1.9600000000000D+00  0.0000000000000D+00  0.0000000000000D+00
   198  1.9700000000000D+00  0.0000000000000D+00  0.0000000000000D+00
   199  1.9800000000000D+00  0.0000000000000D+00  0.0000000000000D+00
   200  1.9900000000000D+00  0.0000000000000D+00  0.0000000000000D+00
   201  2.0000000000000D+00  0.0000000000000D+00  0.0000000000000D+00
   202  2.0100000000000D+00  0.0000000000000D+00  0.0000000000000D+00
   203  2.0200000000000D+00  0.0000000000000D+00  0.0000000000000D+00
   204  2.0300000000000D+00  0.0000000000000D+00  0.0000000000000D+00
   205  2.0400000000000D+00  0.0000000000000D+00  0.0000000000000D+00
   206  2.0500000000000D+00  0.0000000000000D+00  0.0000000000000D+00
   207  2.0600000000000D+00  0.0000000000000D+00  0.0000000000000D+00
   208  2.0700000000000D+00  0.0000000000000D+00  0.0000000000000D+00
   209  2.0800000000000D+00  0.0000000000000D+00  0.0000000000000D+00
   210  2.0900000000000D+00  0.0000000000000D+00  0.0000000000000D+00
   211  2.1000000000000D+00  0.0000000000000D+00  0.0000000000000D+00
   212  2.1100000000000D+00  0.0000000000000D+00  0.0000000000000D+00
   213  2.1200000000000D+00  0.0000000000000D+00  0.0000000000000D+00
   214  2.1300000000000D+00  0.0000000000000D+00  0.0000000000000D+00
   215  2.1400000000000D+00  0.0000000000000D+00  0.0000000000000D+00
   216  2.1500000000000D+00  0.0000000000000D+00  0.0000000000000D+00
   217  2.1600000000000D+00  0.0000000000000D+00  0.0000000000000D+00
   218  2.1700000000000D+00  0.0000000000000D+00  0.0000000000000D+00
   219  2.1800000000000D+00  0.0000000000000D+00  0.0000000000000D+00
   220  2.1900000000000D+00  0.0000000000000D+00  0.0000000000000D+00
   221  2.2000000000000D+00  0.0000000000000D+00  0.0000000000000D+00
   222  2.2100000000000D+00  0.0000000000000D+00  0.0000000000000D+00
   223  2.2200000000000D+00  0.0000000000000D+00  0.0000000000000D+00
   224  2.2300000000000D+00  0.0000000000000D+00  0.0000000000000D+00
   225  2.2400000000000D+00  0.0000000000000D+00  0.0000000000000D+00
   226  2.2500000000000D+00  0.0000000000000D+00  0.0000000000000D+00
   227  2.2600000000000D+00  0.0000000000000D+00  0.0000000000000D+00
   228  2.2700000000000D+00  0.0000000000000D+00  0.0000000000000D+00
   229  2.2800000000000D+00  0.0000000000000D+00  0.0000000000000D+00
   230  2.2900000000000D+00  0.0000000000000D+00  0.0000000000000D+00
   231  2.3000000000000D+00  0.0000000000000D+00  0.0000000000000D+00
   232  2.3100000000000D+00  0.0000000000000D+00  0.0000000000000D+00
   233  2.3200000000000D+00  0.0000000000000D+00  0.0000000000000D+00
   234  2.3300000000000D+00  0.0000000000000D+00  0.0000000000000D+00
   235  2.3400000000000D+00  0.0000000000000D+00  0.0000000000000D+00
   236  2.3500000000000D+00  0.0000000000000D+00  0.0000000000000D+00
   237  2.3600000000000D+00  0.0000000000000D+00  0.0000000000000D+00
   238  2.3700000000000D+00  0.0000000000000D+00  0.0000000000000D+00
   239  2.3800000000000D+00  0.0000000000000D+00  0.0000000000000D+00
   240  2.3900000000000D+00  0.0000000000000D+00  0.0000000000000D+00
   241  2.4000000000000D+00  0.0000000000000D+00  0.0000000000000D+00
   242  2.4100000000000D+00  0.0000000000000D+00  0.0000000000000D+00
   243  2.4200000000000D+00  0.0000000000000D+00  0.0000000000000D+00
   244  2.4300000000000D+00  0.0000000000000D+00  0.0000000000000D+00
   245  2.4400000000000D+00  0.0000000000000D+00  0.0000000000000D+00
   246  2.4500000000000D+00  0.0000000000000D+00  0.0000000000000D+00
   247  2.4600000000000D+00  0.0000000000000D+00  0.0000000000000D+00
   248  2.4700000000000D+00  0.0000000000000D+00  0.0000000000000D+00
   249  2.4800000000000D+00  0.0000000000000D+00  0.0000000000000D+00
   250  2.4900000000000D+00  0.0000000000000D+00  0.0000000000000D+00
   251  2.5000000000000D+00  0.0000000000000D+00  0.0000000000000D+00
   252  2.5100000000000D+00  0.0000000000000D+00  0.0000000000000D+00
   253  2.5200000000000D+00  0.0000000000000D+00  0.0000000000000D+00
   254  2.5300000000000D+00  0.0000000000000D+00  0.0000000000000D+00
   255  2.5400000000000D+00  0.0000000000000D+00  0.0000000000000D+00
   256  2.5500000000000D+00  0.0000000000000D+00  0.0000000000000D+00
   257  2.5600000000000D+00  0.0000000000000D+00  0.0000000000000D+00
   258  2.5700000000000D+00  0.0000000000000D+00  0.0000000000000D+00
   259  2.5800000000000D+00  0.0000000000000D+00  0.0000000000000D+00
   260  2.5900000000000D+00  0.0000000000000D+00  0.0000000000000D+00
   261  2.6000000000000D+00  0.0000000000000D+00  0.0000000000000D+00
   262  2.6100000000000D+00  0.0000000000000D+00  0.0000000000000D+00
   263  2.6200000000000D+00  0.0000000000000D+00  0.0000000000000D+00
   264  2.6300000000000D+00  0.0000000000000D+00  0.0000000000000D+00
   265  2.6400000000000D+00  0.0000000000000D+00  0.0000000000000D+00
   266  2.6500000000000D+00  0.0000000000000D+00  0.0000000000000D+00
   267  2.6600000000000D+00  0.0000000000000D+00  0.0000000000000D+00
   268  2.6700000000000D+00  0.0000000000000D+00  0.0000000000000D+00
   269  2.6800000000000D+00  0.0000000000000D+00  0.0000000000000D+00
   270  2.6900000000000D+00  0.0000000000000D+00  0.0000000000000D+00
   271  2.7000000000000D+00  0.0000000000000D+00  0.0000000000000D+00
   272  2.7100000000000D+00  0.0000000000000D+00  0.0000000000000D+00
   273  2.7200000000000D+00  0.0000000000000D+00  0.0000000000000D+00
   274  2.7300000000000D+00  0.0000000000000D+00  0.0000000000000D+00
   275  2.7400000000000D+00  0.0000000000000D+00  0.0000000000000D+00
   276  2.7500000000000D+00  0.0000000000000D+00  0.0000000000000D+00
   277  2.7600000000000D+00  0.0000000000000D+00  0.0000000000000D+00
   278  2.7700000000000D+00  0.0000000000000D+00  0.0000000000000D+00
   279  2.7800000000000D+00  0.0000000000000D+00  0.0000000000000D+00
   280  2.7900000000000D+00  0.0000000000000D+00  0.0000000000000D+00
   281  2.8000000000000D+00  0.0000000000000D+00  0.0000000000000D+00
   282  2.8100000000000D+00  0.0000000000000D+00  0.0000000000000D+00
   283  2.8200000000000D+00  0.0000000000000D+00  0.0000000000000D+00
   284  2.8300000000000D+00  0.0000000000000D+00  0.0000000000000D+00
   285  2.8400000000000D+00  0.0000000000000D+00  0.0000000000000D+00
   286  2.8500000000000D+00  0.0000000000000D+00  0.0000000000000D+00
   287  2.8600000000000D+00  0.0000000000000D+00  0.0000000000000D+00
   288  2.8700000000000D+00  0.0000000000000D+00  0.0000000000000D+00
   289  2.8800000000000D+00  0.0000000000000D+00  0.0000000000000D+00
   290  2.8900000000000D+00  0.0000000000000D+00  0.0000000000000D+00
   291  2.9000000000000D+00  0.0000000000000D+00  0.0000000000000D+00
   292  2.9100000000000D+00  0.0000000000000D+00  0.0000000000000D+00
   293  2.9200000000000D+00  0.0000000000000D+00  0.0000000000000D+00
   294  2.9300000000000D+00  0.0000000000000D+00  0.0000000000000D+00
   295  2.9400000000000D+00  0.0000000000000D+00  0.0000000000000D+00
   296  2.9500000000000D+00  0.0000000000000D+00  0.0000000000000D+00
   297  2.9600000000000D+00  0.0000000000000D+00  0.0000000000000D+00
   298  2.9700000000000D+00  0.0000000000000D+00  0.0000000000000D+00
   299  2.9800000000000D+00  0.0000000000000D+00  0.0000000000000D+00
   300  2.9900000000000D+00  0.0000000000000D+00  0.0000000000000D+00
   301  3.0000000000000D+00  0.0000000000000D+00  0.0000000000000D+00
   302  3.0100000000000D+00  0.0000000000000D+00  0.0000000000000D+00
   303  3.0200000000000D+00  0.0000000000000D+00  0.0000000000000D+00
   304  3.0300000000000D+00  0.0000000000000D+00  0.0000000000000D+00
   305  3.0400000000000D+00  0.0000000000000D+00  0.0000000000000D+00
   306  3.0500000000000D+00  0.0000000000000D+00  0.0000000000000D+00
   307  3.0600000000000D+00  0.0000000000000D+00  0.0000000000000D+00
   308  3.0700000000000D+00  0.0000000000000D+00  0.0000000000000D+00
   309  3.0800000000000D+00  0.0000000000000D+00  0.0000000000000D+00
   310  3.0900000000000D+00  0.0000000000000D+00  0.0000000000000D+00
   311  3.1000000000000D+00  0.0000000000000D+00  0.0000000000000D+00
   312  3.1100000000000D+00  0.0000000000000D+00  0.0000000000000D+00
   313  3.1200000000000D+00  0.0000000000000D+00  0.0000000000000D+00
   314  3.1300000000000D+00  0.0000000000000D+00  0.0000000000000D+00
   315  3.1400000000000D+00  0.0000000000000D+00  0.0000000000000D+00
   316  3.1500000000000D+00  0.0000000000000D+00  0.0000000000000D+00
   317  3.1600000000000D+00  0.0000000000000D+00  0.0000000000000D+00
   318  3.1700000000000D+00  0.0000000000000D+00  0.0000000000000D+00
   319  3.1800000000000D+00  0.0000000000000D+00  0.0000000000000D+00
   320  3.1900000000000D+00  0.0000000000000D+00  0.0000000000000D+00
   321  3.2000000000000D+00  0.0000000000000D+00  0.0000000000000D+00
   322  3.2100000000000D+00  0.0000000000000D+00  0.0000000000000D+00
   323  3.2200000000000D+00  0.0000000000000D+00  0.0000000000000D+00
   324  3.2300000000000D+00  0.0000000000000D+00  0.0000000000000D+00
   325  3.2400000000000D+00  0.0000000000000D+00  0.0000000000000D+00
   326  3.2500000000000D+00  0.0000000000000D+00  0.0000000000000D+00
   327  3.2600000000000D+00  0.0000000000000D+00  0.0000000000000D+00
   328  3.2700000000000D+00  0.0000000000000D+00  0.0000000000000D+00
   329  3.2800000000000D+00  0.0000000000000D+00  0.0000000000000D+00
   330  3.2900000000000D+00  0.0000000000000D+00  0.0000000000000D+00
   331  3.3000000000000D+00  0.0000000000000D+00  0.0000000000000D+00
   332  3.3100000000000D+00  0.0000000000000D+00  0.0000000000000D+00
   333  3.3200000000000D+00  0.0000000000000D+00  0.0000000000000D+00
   334  3.3300000000000D+00  0.0000000000000D+00  0.0000000000000D+00
   335  3.3400000000000D+00  0.0000000000000D+00  0.0000000000000D+00
   336  3.3500000000000D+00  0.0000000000000D+00  0.0000000000000D+00
   337  3.3600000000000D+00  0.0000000000000D+00  0.0000000000000D+00
   338  3.3700000000000D+00  0.0000000000000D+00  0.0000000000000D+00
   339  3.3800000000000D+00  0.0000000000000D+00  0.0000000000000D+00
   340  3.3900000000000D+00  0.0000000000000D+00  0.0000000000000D+00
   341  3.4000000000000D+00  0.0000000000000D+00  0.0000000000000D+00
   342  3.4100000000000D+00  0.0000000000000D+00  0.0000000000000D+00
   343  3.4200000000000D+00  0.0000000000000D+00  0.0000000000000D+00
   344  3.4300000000000D+00  0.0000000000000D+00  0.0000000000000D+00
   345  3.4400000000000D+00  0.0000000000000D+00  0.0000000000000D+00
   346  3.4500000000000D+00  0.0000000000000D+00  0.0000000000000D+00
   347  3.4600000000000D+00  0.0000000000000D+00  0.0000000000000D+00
   348  3.4700000000000D+00  0.0000000000000D+00  0.0000000000000D+00
   349  3.4800000000000D+00  0.0000000000000D+00  0.0000000000000D+00
   350  3.4900000000000D+00  0.0000000000000D+00  0.0000000000000D+00
   351  3.5000000000000D+00  0.0000000000000D+00  0.0000000000000D+00
   352  3.5100000000000D+00  0.0000000000000D+00  0.0000000000000D+00
   353  3.5200000000000D+00  0.0000000000000D+00  0.0000000000000D+00
   354  3.5300000000000D+00  0.0000000000000D+00  0.0000000000000D+00
   355  3.5400000000000D+00  0.0000000000000D+00  0.0000000000000D+00
   356  3.5500000000000D+00  0.0000000000000D+00  0.0000000000000D+00
   357  3.5600000000000D+00  0.0000000000000D+00  0.0000000000000D+00
   358  3.5700000000000D+00  0.0000000000000D+00  0.0000000000000D+00
   359  3.5800000000000D+00  0.0000000000000D+00  0.0000000000000D+00
   360  3.5900000000000D+00  0.0000000000000D+00  0.0000000000000D+00
   361  3.6000000000000D+00  0.0000000000000D+00  0.0000000000000D+00
   362  3.6100000000000D+00  0.0000000000000D+00  0.0000000000000D+00
   363  3.6200000000000D+00  0.0000000000000D+00  0.0000000000000D+00
   364  3.6300000000000D+00  0.0000000000000D+00  0.0000000000000D+00
   365  3.6400000000000D+00  0.0000000000000D+00  0.0000000000000D+00
   366  3.6500000000000D+00  0.0000000000000D+00  0.0000000000000D+00
   367  3.6600000000000D+00  0.0000000000000D+00  0.0000000000000D+00
   368  3.6700000000000D+00  0.0000000000000D+00  0.0000000000000D+00
   369  3.6800000000000D+00  0.0000000000000D+00  0.0000000000000D+00
   370  3.6900000000000D+00  0.0000000000000D+00  0.0000000000000D+00
   371  3.7000000000000D+00  0.0000000000000D+00  0.0000000000000D+00
   372  3.7100000000000D+00  0.0000000000000D+00  0.0000000000000D+00
   373  3.7200000000000D+00  0.0000000000000D+00  0.0000000000000D+00
   374  3.7300000000000D+00  0.0000000000000D+00  0.0000000000000D+00
   375  3.7400000000000D+00  0.0000000000000D+00  0.0000000000000D+00
   376  3.7500000000000D+00  0.0000000000000D+00  0.0000000000000D+00
   377  3.7600000000000D+00  0.0000000000000D+00  0.0000000000000D+00
   378  3.7700000000000D+00  0.0000000000000D+00  0.0000000000000D+00
   379  3.7800000000000D+00  0.0000000000000D+00  0.0000000000000D+00
   380  3.7900000000000D+00  0.0000000000000D+00  0.0000000000000D+00
   381  3.8000000000000D+00  0.0000000000000D+00  0.0000000000000D+00
   382  3.8100000000000D+00  0.0000000000000D+00  0.0000000000000D+00
   383  3.8200000000000D+00  0.0000000000000D+00  0.0000000000000D+00
   384  3.8300000000000D+00  0.0000000000000D+00  0.0000000000000D+00
   385  3.8400000000000D+00  0.0000000000000D+00  0.0000000000000D+00
   386  3.8500000000000D+00  0.0000000000000D+00  0.0000000000000D+00
   387  3.8600000000000D+00  0.0000000000000D+00  0.0000000000000D+00
   388  3.8700000000000D+00  0.0000000000000D+00  0.0000000000000D+00
   389  3.8800000000000D+00  0.0000000000000D+00  0.0000000000000D+00
   390  3.8900000000000D+00  0.0000000000000D+00  0.0000000000000D+00
   391  3.9000000000000D+00  0.0000000000000D+00  0.0000000000000D+00
   392  3.9100000000000D+00  0.0000000000000D+00  0.0000000000000D+00
   393  3.9200000000000D+00  0.0000000000000D+00  0.0000000000000D+00
   394  3.9300000000000D+00  0.0000000000000D+00  0.0000000000000D+00
   395  3.9400000000000D+00  0.0000000000000D+00  0.0000000000000D+00
   396  3.9500000000000D+00  0.0000000000000D+00  0.0000000000000D+00
   397  3.9600000000000D+00  0.0000000000000D+00  0.0000000000000D+00
   398  3.9700000000000D+00  0.0000000000000D+00  0.0000000000000D+00
   399  3.9800000000000D+00  0.0000000000000D+00  0.0000000000000D+00
   400  3.9900000000000D+00  0.0000000000000D+00  0.0000000000000D+00
   401  4.0000000000000D+00  0.0000000000000D+00  0.0000000000000D+00
   402  4.0100000000000D+00  0.0000000000000D+00  0.0000000000000D+00
   403  4.0200000000000D+00  0.0000000000000D+00  0.0000000000000D+00
   404  4.0300000000000D+00  0.0000000000000D+00  0.0000000000000D+00
   405  4.0400000000000D+00  0.0000000000000D+00  0.0000000000000D+00
   406  4.0500000000000D+00  0.0000000000000D+00  0.0000000000000D+00
   407  4.0600000000000D+00  0.0000000000000D+00  0.0000000000000D+00
   408  4.0700000000000D+00  0.0000000000000D+00  0.0000000000000D+00
   409  4.0800000000000D+00  0.0000000000000D+00  0.0000000000000D+00
   410  4.0900000000000D+00  0.0000000000000D+00  0.0000000000000D+00
   411  4.1000000000000D+00  0.0000000000000D+00  0.0000000000000D+00
   412  4.1100000000000D+00  0.0000000000000D+00  0.0000000000000D+00
   413  4.1200000000000D+00  0.0000000000000D+00  0.0000000000000D+00
   414  4.1300000000000D+00  0.0000000000000D+00  0.0000000000000D+00
   415  4.1400000000000D+00  0.0000000000000D+00  0.0000000000000D+00
   416  4.1500000000000D+00  0.0000000000000D+00  0.0000000000000D+00
   417  4.1600000000000D+00  0.0000000000000D+00  0.0000000000000D+00
   418  4.1700000000000D+00  0.0000000000000D+00  0.0000000000000D+00
   419  4.1800000000000D+00  0.0000000000000D+00  0.0000000000000D+00
   420  4.1900000000000D+00  0.0000000000000D+00  0.0000000000000D+00
   421  4.2000000000000D+00  0.0000000000000D+00  0.0000000000000D+00
   422  4.2100000000000D+00  0.0000000000000D+00  0.0000000000000D+00