Co    ONCVPSP-3.3.0  r_core=   1.26190   1.32357   1.66026
     27.0000     17.0000      220408    zatom,zion,pspd
     8       2   2     4   600     0    pspcod,pspxc,lmax,lloc,mmax,r2well
  5.99000000  0.00000000  0.00000000    rchrg fchrg qchrg
     2     2     2     0     0    nproj
     1     1           extension_switch
   0                         6.3050389701868D+00 -6.1707240835693D-01
     1  0.0000000000000D+00  7.9442119549356D-11  3.8003739877279D-09
     2  1.0000000000000D-02  9.3025835053896D-02  3.0434985421096D-02
     3  2.0000000000000D-02  1.8577782903653D-01  6.0911810669738D-02
     4  3.0000000000000D-02  2.7798301395633D-01  9.1468513768247D-02
     5  4.0000000000000D-02  3.6937016646089D-01  1.2213559831374D-01
     6  5.0000000000000D-02  4.5967067633497D-01  1.5293243824807D-01
     7  6.0000000000000D-02  5.4861941035461D-01  1.8386388627349D-01
     8  7.0000000000000D-02  6.3595556985344D-01  2.1491714927707D-01
     9  8.0000000000000D-02  7.2142354027836D-01  2.4605899032669D-01
    10  9.0000000000000D-02  8.0477373091516D-01  2.7723331214080D-01
    11  1.0000000000000D-01  8.8576340285439D-01  3.0835917147323D-01
    12  1.1000000000000D-01  9.6415748314447D-01  3.3932926766021D-01
    13  1.2000000000000D-01  1.0397293629468D+00  3.7000894172923D-01
    14  1.3000000000000D-01  1.1122616773687D+00  4.0023571505509D-01
    15  1.4000000000000D-01  1.1815470645076D+00  4.2981938866176D-01
    16  1.5000000000000D-01  1.2473889010981D+00  4.5854271601093D-01
    17  1.6000000000000D-01  1.3096020120151D+00  4.8616265359620D-01
    18  1.7000000000000D-01  1.3680133507556D+00  5.1241218498566D-01
    19  1.8000000000000D-01  1.4224626479014D+00  5.3700270523948D-01
    20  1.9000000000000D-01  1.4728030244600D+00  5.5962694398727D-01
    21  2.0000000000000D-01  1.5189015668968D+00  5.7996239699848D-01
    22  2.1000000000000D-01  1.5606398606020D+00  5.9767522793053D-01
    23  2.2000000000000D-01  1.5979144785034D+00  6.1242459420617D-01
    24  2.3000000000000D-01  1.6306374215184D+00  6.2386734376035D-01
    25  2.4000000000000D-01  1.6587365075641D+00  6.3166302280879D-01
    26  2.5000000000000D-01  1.6821557058965D+00  6.3547912892234D-01
    27  2.6000000000000D-01  1.7008554136390D+00  6.3499653862796D-01
    28  2.7000000000000D-01  1.7148126714892D+00  6.2991503457832D-01
    29  2.8000000000000D-01  1.7240213157597D+00  6.1995885410560D-01
    30  2.9000000000000D-01  1.7284920641120D+00  6.0488217875613D-01
    31  3.0000000000000D-01  1.7282525325917D+00  5.8447448323724D-01
    32  3.1000000000000D-01  1.7233471818555D+00  5.5856566212767D-01
    33  3.2000000000000D-01  1.7138371908071D+00  5.2703085372513D-01
    34  3.3000000000000D-01  1.6998002562184D+00  4.8979488253697D-01
    35  3.4000000000000D-01  1.6813303173115D+00  4.4683624514814D-01
    36  3.5000000000000D-01  1.6585372047052D+00  3.9819056850703D-01
    37  3.6000000000000D-01  1.6315462135916D+00  3.4395347501111D-01
    38  3.7000000000000D-01  1.6004976014942D+00  2.8428279510233D-01
    39  3.8000000000000D-01  1.5655460114677D+00  2.1940007533046D-01
    40  3.9000000000000D-01  1.5268598221298D+00  1.4959133793380D-01
    41  4.0000000000000D-01  1.4846204264532D+00  7.5207056828180D-02
    42  4.1000000000000D-01  1.4390214417973D+00 -3.3386756102505D-03
    43  4.2000000000000D-01  1.3902678542115D+00 -8.5569806551831D-02
    44  4.3000000000000D-01  1.3385751005878D+00 -1.7095081064249D-01
    45  4.4000000000000D-01  1.2841680927862D+00 -2.5889000224798D-01
    46  4.5000000000000D-01  1.2272801883754D+00 -3.4874365550931D-01
    47  4.6000000000000D-01  1.1681521131412D+00 -4.3982090479387D-01
    48  4.7000000000000D-01  1.1070308409886D+00 -5.3138938733682D-01
    49  4.8000000000000D-01  1.0441684373111D+00 -6.2268157934741D-01
    50  4.9000000000000D-01  9.7982087230441D-01 -7.1290176674103D-01
    51  5.0000000000000D-01  9.1424681106615D-01 -8.0123358209405D-01
    52  5.1000000000000D-01  8.4770638763474D-01 -8.8684803053680D-01
    53  5.2000000000000D-01  7.8045997038029D-01 -9.6891191922688D-01
    54  5.3000000000000D-01  7.1276692636125D-01 -1.0465965979045D+00
    55  5.4000000000000D-01  6.4488439240022D-01 -1.1190869119355D+00
    56  5.5000000000000D-01  5.7706606070598D-01 -1.1855902642822D+00
    57  5.6000000000000D-01  5.0956098687644D-01 -1.2453456791140D+00
    58  5.7000000000000D-01  4.4261242805451D-01 -1.2976327573303D+00
    59  5.8000000000000D-01  3.7645671887647D-01 -1.3417804131883D+00
    60  5.9000000000000D-01  3.1132219265002D-01 -1.3771752815334D+00
    61  6.0000000000000D-01  2.4742815492552D-01 -1.4032696868643D+00
    62  6.1000000000000D-01  1.8498391628332D-01 -1.4195890685963D+00
    63  6.2000000000000D-01  1.2418789075166D-01 -1.4257387614448D+00
    64  6.3000000000000D-01  6.5226765797351D-02 -1.4214100357729D+00
    65  6.4000000000000D-01  8.2747493020611D-03 -1.4063853099645D+00
    66  6.5000000000000D-01 -4.6507101652726D-02 -1.3805424554060D+00
    67  6.6000000000000D-01 -9.8971466004710D-02 -1.3438581242936D+00
    68  6.7000000000000D-01 -1.4898525442737D-01 -1.2964100411765D+00
    69  6.8000000000000D-01 -1.9643001276001D-01 -1.2383782108326D+00
    70  6.9000000000000D-01 -2.4120223111715D-01 -1.1700450075103D+00
    71  7.0000000000000D-01 -2.8321355741652D-01 -1.0917941236550D+00
    72  7.1000000000000D-01 -3.2239091485773D-01 -1.0041083698854D+00
    73  7.2000000000000D-01 -3.5867652368159D-01 -9.0756633191207D-01
    74  7.3000000000000D-01 -3.9202782833722D-01 -8.0283790417958D-01
    75  7.4000000000000D-01 -4.2241733197506D-01 -6.9067873411405D-01
    76  7.5000000000000D-01 -4.4983234095241D-01 -5.7192362468017D-01
    77  7.6000000000000D-01 -4.7427462278762D-01 -4.4747895648907D-01
    78  7.7000000000000D-01 -4.9575998170941D-01 -3.1831420358393D-01
    79  7.8000000000000D-01 -5.1431775661838D-01 -1.8545262920348D-01
    80  7.9000000000000D-01 -5.2999024689970D-01 -4.9961259086396D-02
    81  8.0000000000000D-01 -5.4283207209072D-01  8.7059759935213D-02
    82  8.1000000000000D-01 -5.5290947191073D-01  2.2448829933680D-01
    83  8.2000000000000D-01 -5.6029955359452D-01  3.6119176196680D-01
    84  8.3000000000000D-01 -5.6508949383315D-01  4.9603883830297D-01
    85  8.4000000000000D-01 -5.6737570291013D-01  6.2791137085455D-01
    86  8.5000000000000D-01 -5.6726295882515D-01  7.5571618874504D-01
    87  8.6000000000000D-01 -5.6486351931890D-01  8.7839677330378D-01
    88  8.7000000000000D-01 -5.6029621975006D-01  9.9494461603840D-01
    89  8.8000000000000D-01 -5.5368556472800D-01  1.1044101326701D+00
    90  8.9000000000000D-01 -5.4516082127425D-01  1.2059130009853D+00
    91  9.0000000000000D-01 -5.3485512107230D-01  1.2986517960550D+00
    92  9.1000000000000D-01 -5.2290457907284D-01  1.3819128038480D+00
    93  9.2000000000000D-01 -5.0944743535307D-01  1.4550779033376D+00
    94  9.3000000000000D-01 -4.9462322668862D-01  1.5176314177711D+00
    95  9.4000000000000D-01 -4.7857199379093D-01  1.5691658477272D+00
    96  9.5000000000000D-01 -4.6143352959718D-01  1.6093864117751D+00
    97  9.6000000000000D-01 -4.4334667338157D-01  1.6381143348278D+00
    98  9.7000000000000D-01 -4.2444865479423D-01  1.6552888394441D+00
    99  9.8000000000000D-01 -4.0487449122935D-01  1.6609678113333D+00
   100  9.9000000000000D-01 -3.8475644119963D-01  1.6553271266486D+00
   101  1.0000000000000D+00 -3.6422351565161D-01  1.6386586452836D+00
   102  1.0100000000000D+00 -3.4340104838140D-01  1.6113668916049D+00
   103  1.0200000000000D+00 -3.2241032596711D-01  1.5739644604265D+00
   104  1.0300000000000D+00 -3.0136827687765D-01  1.5270662025809D+00
   105  1.0400000000000D+00 -2.8038721868612D-01  1.4713822602536D+00
   106  1.0500000000000D+00 -2.5957466159595D-01  1.4077100376281D+00
   107  1.0600000000000D+00 -2.3903316586564D-01  1.3369252055233D+00
   108  1.0700000000000D+00 -2.1886025001932D-01  1.2599718531711D+00
   109  1.0800000000000D+00 -1.9914834621016D-01  1.1778519107622D+00
   110  1.0900000000000D+00 -1.7998479856034D-01  1.0916139770783D+00
   111  1.1000000000000D+00 -1.6145189985134D-01  1.0023416948948D+00
   112  1.1100000000000D+00 -1.4362696157460D-01  9.1114182339721D-01
   113  1.1200000000000D+00 -1.2658241199265D-01  8.1913216250687D-01
   114  1.1300000000000D+00 -1.1038591666794D-01  7.2742948639532D-01
   115  1.1400000000000D+00 -9.5100515752516D-02  6.3713764423163D-01
   116  1.1500000000000D+00 -8.0784772245058D-02  5.4933598639529D-01
   117  1.1600000000000D+00 -6.7492925422396D-02  4.6506827044094D-01
   118  1.1700000000000D+00 -5.5275043978753D-02  3.8533221160957D-01
   119  1.1800000000000D+00 -4.4177172730393D-02  3.1106980834845D-01
   120  1.1900000000000D+00 -3.4241463886361D-02  2.4315812833305D-01
   121  1.2000000000000D+00 -2.5506307214379D-02  1.8240256629363D-01
   122  1.2100000000000D+00 -1.8006429420616D-02  1.2952999199561D-01
   123  1.2200000000000D+00 -1.1774231734015D-02  8.5178081461943D-02
   124  1.2300000000000D+00 -6.8337926872705D-03  4.9829237252843D-02
   125  1.2400000000000D+00 -3.1878196714713D-03  2.3687907372046D-02
   126  1.2500000000000D+00 -9.4948290776948D-04  7.7387375132731D-03
   127  1.2600000000000D+00 -2.4031839351689D-05  1.1506697857206D-03
   128  1.2700000000000D+00  8.8525839409039D-05 -1.9289289431011D-04
   129  1.2800000000000D+00 -1.9104891036393D-05  6.4163643846115D-05
   130  1.2900000000000D+00 -1.1412093804840D-05  4.3702676625442D-05
   131  1.3000000000000D+00  5.2934721088602D-06 -1.5526782682330D-05
   132  1.3100000000000D+00 -5.5811725559370D-08 -8.4517968195295D-07
   133  1.3200000000000D+00 -7.3873922520652D-08 -1.1187028839344D-06
   134  1.3300000000000D+00  0.0000000000000D+00  0.0000000000000D+00
   135  1.3400000000000D+00  0.0000000000000D+00  0.0000000000000D+00
   136  1.3500000000000D+00  0.0000000000000D+00  0.0000000000000D+00
   137  1.3600000000000D+00  0.0000000000000D+00  0.0000000000000D+00
   138  1.3700000000000D+00  0.0000000000000D+00  0.0000000000000D+00
   139  1.3800000000000D+00  0.0000000000000D+00  0.0000000000000D+00
   140  1.3900000000000D+00  0.0000000000000D+00  0.0000000000000D+00
   141  1.4000000000000D+00  0.0000000000000D+00  0.0000000000000D+00
   142  1.4100000000000D+00  0.0000000000000D+00  0.0000000000000D+00
   143  1.4200000000000D+00  0.0000000000000D+00  0.0000000000000D+00
   144  1.4300000000000D+00  0.0000000000000D+00  0.0000000000000D+00
   145  1.4400000000000D+00  0.0000000000000D+00  0.0000000000000D+00
   146  1.4500000000000D+00  0.0000000000000D+00  0.0000000000000D+00
   147  1.4600000000000D+00  0.0000000000000D+00  0.0000000000000D+00
   148  1.4700000000000D+00  0.0000000000000D+00  0.0000000000000D+00
   149  1.4800000000000D+00  0.0000000000000D+00  0.0000000000000D+00
   150  1.4900000000000D+00  0.0000000000000D+00  0.0000000000000D+00
   151  1.5000000000000D+00  0.0000000000000D+00  0.0000000000000D+00
   152  1.5100000000000D+00  0.0000000000000D+00  0.0000000000000D+00
   153  1.5200000000000D+00  0.0000000000000D+00  0.0000000000000D+00
   154  1.5300000000000D+00  0.0000000000000D+00  0.0000000000000D+00
   155  1.5400000000000D+00  0.0000000000000D+00  0.0000000000000D+00
   156  1.5500000000000D+00  0.0000000000000D+00  0.0000000000000D+00
   157  1.5600000000000D+00  0.0000000000000D+00  0.0000000000000D+00
   158  1.5700000000000D+00  0.0000000000000D+00  0.0000000000000D+00
   159  1.5800000000000D+00  0.0000000000000D+00  0.0000000000000D+00
   160  1.5900000000000D+00  0.0000000000000D+00  0.0000000000000D+00
   161  1.6000000000000D+00  0.0000000000000D+00  0.0000000000000D+00
   162  1.6100000000000D+00  0.0000000000000D+00  0.0000000000000D+00
   163  1.6200000000000D+00  0.0000000000000D+00  0.0000000000000D+00
   164  1.6300000000000D+00  0.0000000000000D+00  0.0000000000000D+00
   165  1.6400000000000D+00  0.0000000000000D+00  0.0000000000000D+00
   166  1.6500000000000D+00  0.0000000000000D+00  0.0000000000000D+00
   167  1.6600000000000D+00  0.0000000000000D+00  0.0000000000000D+00
   168  1.6700000000000D+00  0.0000000000000D+00  0.0000000000000D+00
   169  1.6800000000000D+00  0.0000000000000D+00  0.0000000000000D+00
   170  1.6900000000000D+00  0.0000000000000D+00  0.0000000000000D+00
   171  1.7000000000000D+00  0.0000000000000D+00  0.0000000000000D+00
   172  1.7100000000000D+00  0.0000000000000D+00  0.0000000000000D+00
   173  1.7200000000000D+00  0.0000000000000D+00  0.0000000000000D+00
   174  1.7300000000000D+00  0.0000000000000D+00  0.0000000000000D+00
   175  1.7400000000000D+00  0.0000000000000D+00  0.0000000000000D+00
   176  1.7500000000000D+00  0.0000000000000D+00  0.0000000000000D+00
   177  1.7600000000000D+00  0.0000000000000D+00  0.0000000000000D+00
   178  1.7700000000000D+00  0.0000000000000D+00  0.0000000000000D+00
   179  1.7800000000000D+00  0.0000000000000D+00  0.0000000000000D+00
   180  1.7900000000000D+00  0.0000000000000D+00  0.0000000000000D+00
   181  1.8000000000000D+00  0.0000000000000D+00  0.0000000000000D+00
   182  1.8100000000000D+00  0.0000000000000D+00  0.0000000000000D+00
   183  1.8200000000000D+00  0.0000000000000D+00  0.0000000000000D+00
   184  1.8300000000000D+00  0.0000000000000D+00  0.0000000000000D+00
   185  1.8400000000000D+00  0.0000000000000D+00  0.0000000000000D+00
   186  1.8500000000000D+00  0.0000000000000D+00  0.0000000000000D+00
   187  1.8600000000000D+00  0.0000000000000D+00  0.0000000000000D+00
   188  1.8700000000000D+00  0.0000000000000D+00  0.0000000000000D+00
   189  1.8800000000000D+00  0.0000000000000D+00  0.0000000000000D+00
   190  1.8900000000000D+00  0.0000000000000D+00  0.0000000000000D+00
   191  1.9000000000000D+00  0.0000000000000D+00  0.0000000000000D+00
   192  1.9100000000000D+00  0.0000000000000D+00  0.0000000000000D+00
   193  1.9200000000000D+00  0.0000000000000D+00  0.0000000000000D+00
   194  1.9300000000000D+00  0.0000000000000D+00  0.0000000000000D+00
   195  1.9400000000000D+00  0.0000000000000D+00  0.0000000000000D+00
   196  1.9500000000000D+00  0.0000000000000D+00  0.0000000000000D+00
   197  1.9600000000000D+00  0.0000000000000D+00  0.0000000000000D+00
   198  1.9700000000000D+00  0.0000000000000D+00  0.0000000000000D+00
   199  1.9800000000000D+00  0.0000000000000D+00  0.0000000000000D+00
   200  1.9900000000000D+00  0.0000000000000D+00  0.0000000000000D+00
   201  2.0000000000000D+00  0.0000000000000D+00  0.0000000000000D+00
   202  2.0100000000000D+00  0.0000000000000D+00  0.0000000000000D+00
   203  2.0200000000000D+00  0.0000000000000D+00  0.0000000000000D+00
   204  2.0300000000000D+00  0.0000000000000D+00  0.0000000000000D+00
   205  2.0400000000000D+00  0.0000000000000D+00  0.0000000000000D+00
   206  2.0500000000000D+00  0.0000000000000D+00  0.0000000000000D+00
   207  2.0600000000000D+00  0.0000000000000D+00  0.0000000000000D+00
   208  2.0700000000000D+00  0.0000000000000D+00  0.0000000000000D+00
   209  2.0800000000000D+00  0.0000000000000D+00  0.0000000000000D+00
   210  2.0900000000000D+00  0.0000000000000D+00  0.0000000000000D+00
   211  2.1000000000000D+00  0.0000000000000D+00  0.0000000000000D+00
   212  2.1100000000000D+00  0.0000000000000D+00  0.0000000000000D+00
   213  2.1200000000000D+00  0.0000000000000D+00  0.0000000000000D+00
   214  2.1300000000000D+00  0.0000000000000D+00  0.0000000000000D+00
   215  2.1400000000000D+00  0.0000000000000D+00  0.0000000000000D+00
   216  2.1500000000000D+00  0.0000000000000D+00  0.0000000000000D+00
   217  2.1600000000000D+00  0.0000000000000D+00  0.0000000000000D+00
   218  2.1700000000000D+00  0.0000000000000D+00  0.0000000000000D+00
   219  2.1800000000000D+00  0.0000000000000D+00  0.0000000000000D+00
   220  2.1900000000000D+00  0.0000000000000D+00  0.0000000000000D+00
   221  2.2000000000000D+00  0.0000000000000D+00  0.0000000000000D+00
   222  2.2100000000000D+00  0.0000000000000D+00  0.0000000000000D+00
   223  2.2200000000000D+00  0.0000000000000D+00  0.0000000000000D+00
   224  2.2300000000000D+00  0.0000000000000D+00  0.0000000000000D+00
   225  2.2400000000000D+00  0.0000000000000D+00  0.0000000000000D+00
   226  2.2500000000000D+00  0.0000000000000D+00  0.0000000000000D+00
   227  2.2600000000000D+00  0.0000000000000D+00  0.0000000000000D+00
   228  2.2700000000000D+00  0.0000000000000D+00  0.0000000000000D+00
   229  2.2800000000000D+00  0.0000000000000D+00  0.0000000000000D+00
   230  2.2900000000000D+00  0.0000000000000D+00  0.0000000000000D+00
   231  2.3000000000000D+00  0.0000000000000D+00  0.0000000000000D+00
   232  2.3100000000000D+00  0.0000000000000D+00  0.0000000000000D+00
   233  2.3200000000000D+00  0.0000000000000D+00  0.0000000000000D+00
   234  2.3300000000000D+00  0.0000000000000D+00  0.0000000000000D+00
   235  2.3400000000000D+00  0.0000000000000D+00  0.0000000000000D+00
   236  2.3500000000000D+00  0.0000000000000D+00  0.0000000000000D+00
   237  2.3600000000000D+00  0.0000000000000D+00  0.0000000000000D+00
   238  2.3700000000000D+00  0.0000000000000D+00  0.0000000000000D+00
   239  2.3800000000000D+00  0.0000000000000D+00  0.0000000000000D+00
   240  2.3900000000000D+00  0.0000000000000D+00  0.0000000000000D+00
   241  2.4000000000000D+00  0.0000000000000D+00  0.0000000000000D+00
   242  2.4100000000000D+00  0.0000000000000D+00  0.0000000000000D+00
   243  2.4200000000000D+00  0.0000000000000D+00  0.0000000000000D+00
   244  2.4300000000000D+00  0.0000000000000D+00  0.0000000000000D+00
   245  2.4400000000000D+00  0.0000000000000D+00  0.0000000000000D+00
   246  2.4500000000000D+00  0.0000000000000D+00  0.0000000000000D+00
   247  2.4600000000000D+00  0.0000000000000D+00  0.0000000000000D+00
   248  2.4700000000000D+00  0.0000000000000D+00  0.0000000000000D+00
   249  2.4800000000000D+00  0.0000000000000D+00  0.0000000000000D+00
   250  2.4900000000000D+00  0.0000000000000D+00  0.0000000000000D+00
   251  2.5000000000000D+00  0.0000000000000D+00  0.0000000000000D+00
   252  2.5100000000000D+00  0.0000000000000D+00  0.0000000000000D+00
   253  2.5200000000000D+00  0.0000000000000D+00  0.0000000000000D+00
   254  2.5300000000000D+00  0.0000000000000D+00  0.0000000000000D+00
   255  2.5400000000000D+00  0.0000000000000D+00  0.0000000000000D+00
   256  2.5500000000000D+00  0.0000000000000D+00  0.0000000000000D+00
   257  2.5600000000000D+00  0.0000000000000D+00  0.0000000000000D+00
   258  2.5700000000000D+00  0.0000000000000D+00  0.0000000000000D+00
   259  2.5800000000000D+00  0.0000000000000D+00  0.0000000000000D+00
   260  2.5900000000000D+00  0.0000000000000D+00  0.0000000000000D+00
   261  2.6000000000000D+00  0.0000000000000D+00  0.0000000000000D+00
   262  2.6100000000000D+00  0.0000000000000D+00  0.0000000000000D+00
   263  2.6200000000000D+00  0.0000000000000D+00  0.0000000000000D+00
   264  2.6300000000000D+00  0.0000000000000D+00  0.0000000000000D+00
   265  2.6400000000000D+00  0.0000000000000D+00  0.0000000000000D+00
   266  2.6500000000000D+00  0.0000000000000D+00  0.0000000000000D+00
   267  2.6600000000000D+00  0.0000000000000D+00  0.0000000000000D+00
   268  2.6700000000000D+00  0.0000000000000D+00  0.0000000000000D+00
   269  2.6800000000000D+00  0.0000000000000D+00  0.0000000000000D+00
   270  2.6900000000000D+00  0.0000000000000D+00  0.0000000000000D+00
   271  2.7000000000000D+00  0.0000000000000D+00  0.0000000000000D+00
   272  2.7100000000000D+00  0.0000000000000D+00  0.0000000000000D+00
   273  2.7200000000000D+00  0.0000000000000D+00  0.0000000000000D+00
   274  2.7300000000000D+00  0.0000000000000D+00  0.0000000000000D+00
   275  2.7400000000000D+00  0.0000000000000D+00  0.0000000000000D+00
   276  2.7500000000000D+00  0.0000000000000D+00  0.0000000000000D+00
   277  2.7600000000000D+00  0.0000000000000D+00  0.0000000000000D+00
   278  2.7700000000000D+00  0.0000000000000D+00  0.0000000000000D+00
   279  2.7800000000000D+00  0.0000000000000D+00  0.0000000000000D+00
   280  2.7900000000000D+00  0.0000000000000D+00  0.0000000000000D+00
   281  2.8000000000000D+00  0.0000000000000D+00  0.0000000000000D+00
   282  2.8100000000000D+00  0.0000000000000D+00  0.0000000000000D+00
   283  2.8200000000000D+00  0.0000000000000D+00  0.0000000000000D+00
   284  2.8300000000000D+00  0.0000000000000D+00  0.0000000000000D+00
   285  2.8400000000000D+00  0.0000000000000D+00  0.0000000000000D+00
   286  2.8500000000000D+00  0.0000000000000D+00  0.0000000000000D+00
   287  2.8600000000000D+00  0.0000000000000D+00  0.0000000000000D+00
   288  2.8700000000000D+00  0.0000000000000D+00  0.0000000000000D+00
   289  2.8800000000000D+00  0.0000000000000D+00  0.0000000000000D+00
   290  2.8900000000000D+00  0.0000000000000D+00  0.0000000000000D+00
   291  2.9000000000000D+00  0.0000000000000D+00  0.0000000000000D+00
   292  2.9100000000000D+00  0.0000000000000D+00  0.0000000000000D+00
   293  2.9200000000000D+00  0.0000000000000D+00  0.0000000000000D+00
   294  2.9300000000000D+00  0.0000000000000D+00  0.0000000000000D+00
   295  2.9400000000000D+00  0.0000000000000D+00  0.0000000000000D+00
   296  2.9500000000000D+00  0.0000000000000D+00  0.0000000000000D+00
   297  2.9600000000000D+00  0.0000000000000D+00  0.0000000000000D+00
   298  2.9700000000000D+00  0.0000000000000D+00  0.0000000000000D+00
   299  2.9800000000000D+00  0.0000000000000D+00  0.0000000000000D+00
   300  2.9900000000000D+00  0.0000000000000D+00  0.0000000000000D+00
   301  3.0000000000000D+00  0.0000000000000D+00  0.0000000000000D+00
   302  3.0100000000000D+00  0.0000000000000D+00  0.0000000000000D+00
   303  3.0200000000000D+00  0.0000000000000D+00  0.0000000000000D+00
   304  3.0300000000000D+00  0.0000000000000D+00  0.0000000000000D+00
   305  3.0400000000000D+00  0.0000000000000D+00  0.0000000000000D+00
   306  3.0500000000000D+00  0.0000000000000D+00  0.0000000000000D+00
   307  3.0600000000000D+00  0.0000000000000D+00  0.0000000000000D+00
   308  3.0700000000000D+00  0.0000000000000D+00  0.0000000000000D+00
   309  3.0800000000000D+00  0.0000000000000D+00  0.0000000000000D+00
   310  3.0900000000000D+00  0.0000000000000D+00  0.0000000000000D+00
   311  3.1000000000000D+00  0.0000000000000D+00  0.0000000000000D+00
   312  3.1100000000000D+00  0.0000000000000D+00  0.0000000000000D+00
   313  3.1200000000000D+00  0.0000000000000D+00  0.0000000000000D+00
   314  3.1300000000000D+00  0.0000000000000D+00  0.0000000000000D+00
   315  3.1400000000000D+00  0.0000000000000D+00  0.0000000000000D+00
   316  3.1500000000000D+00  0.0000000000000D+00  0.0000000000000D+00
   317  3.1600000000000D+00  0.0000000000000D+00  0.0000000000000D+00
   318  3.1700000000000D+00  0.0000000000000D+00  0.0000000000000D+00
   319  3.1800000000000D+00  0.0000000000000D+00  0.0000000000000D+00
   320  3.1900000000000D+00  0.0000000000000D+00  0.0000000000000D+00
   321  3.2000000000000D+00  0.0000000000000D+00  0.0000000000000D+00
   322  3.2100000000000D+00  0.0000000000000D+00  0.0000000000000D+00
   323  3.2200000000000D+00  0.0000000000000D+00  0.0000000000000D+00
   324  3.2300000000000D+00  0.0000000000000D+00  0.0000000000000D+00
   325  3.2400000000000D+00  0.0000000000000D+00  0.0000000000000D+00
   326  3.2500000000000D+00  0.0000000000000D+00  0.0000000000000D+00
   327  3.2600000000000D+00  0.0000000000000D+00  0.0000000000000D+00
   328  3.2700000000000D+00  0.0000000000000D+00  0.0000000000000D+00
   329  3.2800000000000D+00  0.0000000000000D+00  0.0000000000000D+00
   330  3.2900000000000D+00  0.0000000000000D+00  0.0000000000000D+00
   331  3.3000000000000D+00  0.0000000000000D+00  0.0000000000000D+00
   332  3.3100000000000D+00  0.0000000000000D+00  0.0000000000000D+00
   333  3.3200000000000D+00  0.0000000000000D+00  0.0000000000000D+00
   334  3.3300000000000D+00  0.0000000000000D+00  0.0000000000000D+00
   335  3.3400000000000D+00  0.0000000000000D+00  0.0000000000000D+00
   336  3.3500000000000D+00  0.0000000000000D+00  0.0000000000000D+00
   337  3.3600000000000D+00  0.0000000000000D+00  0.0000000000000D+00
   338  3.3700000000000D+00  0.0000000000000D+00  0.0000000000000D+00
   339  3.3800000000000D+00  0.0000000000000D+00  0.0000000000000D+00
   340  3.3900000000000D+00  0.0000000000000D+00  0.0000000000000D+00
   341  3.4000000000000D+00  0.0000000000000D+00  0.0000000000000D+00
   342  3.4100000000000D+00  0.0000000000000D+00  0.0000000000000D+00
   343  3.4200000000000D+00  0.0000000000000D+00  0.0000000000000D+00
   344  3.4300000000000D+00  0.0000000000000D+00  0.0000000000000D+00
   345  3.4400000000000D+00  0.0000000000000D+00  0.0000000000000D+00
   346  3.4500000000000D+00  0.0000000000000D+00  0.0000000000000D+00
   347  3.4600000000000D+00  0.0000000000000D+00  0.0000000000000D+00
   348  3.4700000000000D+00  0.0000000000000D+00  0.0000000000000D+00
   349  3.4800000000000D+00  0.0000000000000D+00  0.0000000000000D+00
   350  3.4900000000000D+00  0.0000000000000D+00  0.0000000000000D+00
   351  3.5000000000000D+00  0.0000000000000D+00  0.0000000000000D+00
   352  3.5100000000000D+00  0.0000000000000D+00  0.0000000000000D+00
   353  3.5200000000000D+00  0.0000000000000D+00  0.0000000000000D+00
   354  3.5300000000000D+00  0.0000000000000D+00  0.0000000000000D+00
   355  3.5400000000000D+00  0.0000000000000D+00  0.0000000000000D+00
   356  3.5500000000000D+00  0.0000000000000D+00  0.0000000000000D+00
   357  3.5600000000000D+00  0.0000000000000D+00  0.0000000000000D+00
   358  3.5700000000000D+00  0.0000000000000D+00  0.0000000000000D+00
   359  3.5800000000000D+00  0.0000000000000D+00  0.0000000000000D+00
   360  3.5900000000000D+00  0.0000000000000D+00  0.0000000000000D+00
   361  3.6000000000000D+00  0.0000000000000D+00  0.0000000000000D+00
   362  3.6100000000000D+00  0.0000000000000D+00  0.0000000000000D+00
   363  3.6200000000000D+00  0.0000000000000D+00  0.0000000000000D+00
   364  3.6300000000000D+00  0.0000000000000D+00  0.0000000000000D+00
   365  3.6400000000000D+00  0.0000000000000D+00  0.0000000000000D+00
   366  3.6500000000000D+00  0.0000000000000D+00  0.0000000000000D+00
   367  3.6600000000000D+00  0.0000000000000D+00  0.0000000000000D+00
   368  3.6700000000000D+00  0.0000000000000D+00  0.0000000000000D+00
   369  3.6800000000000D+00  0.0000000000000D+00  0.0000000000000D+00
   370  3.6900000000000D+00  0.0000000000000D+00  0.0000000000000D+00
   371  3.7000000000000D+00  0.0000000000000D+00  0.0000000000000D+00
   372  3.7100000000000D+00  0.0000000000000D+00  0.0000000000000D+00
   373  3.7200000000000D+00  0.0000000000000D+00  0.0000000000000D+00
   374  3.7300000000000D+00  0.0000000000000D+00  0.0000000000000D+00
   375  3.7400000000000D+00  0.0000000000000D+00  0.0000000000000D+00
   376  3.7500000000000D+00  0.0000000000000D+00  0.0000000000000D+00
   377  3.7600000000000D+00  0.0000000000000D+00  0.0000000000000D+00
   378  3.7700000000000D+00  0.0000000000000D+00  0.0000000000000D+00
   379  3.7800000000000D+00  0.0000000000000D+00  0.0000000000000D+00
   380  3.7900000000000D+00  0.0000000000000D+00  0.0000000000000D+00
   381  3.8000000000000D+00  0.0000000000000D+00  0.0000000000000D+00
   382  3.8100000000000D+00  0.0000000000000D+00  0.0000000000000D+00
   383  3.8200000000000D+00  0.0000000000000D+00  0.0000000000000D+00
   384  3.8300000000000D+00  0.0000000000000D+00  0.0000000000000D+00
   385  3.8400000000000D+00  0.0000000000000D+00  0.0000000000000D+00
   386  3.8500000000000D+00  0.0000000000000D+00  0.0000000000000D+00
   387  3.8600000000000D+00  0.0000000000000D+00  0.0000000000000D+00
   388  3.8700000000000D+00  0.0000000000000D+00  0.0000000000000D+00
   389  3.8800000000000D+00  0.0000000000000D+00  0.0000000000000D+00
   390  3.8900000000000D+00  0.0000000000000D+00  0.0000000000000D+00
   391  3.9000000000000D+00  0.0000000000000D+00  0.0000000000000D+00
   392  3.9100000000000D+00  0.0000000000000D+00  0.0000000000000D+00
   393  3.9200000000000D+00  0.0000000000000D+00  0.0000000000000D+00
   394  3.9300000000000D+00  0.0000000000000D+00  0.0000000000000D+00
   395  3.9400000000000D+00  0.0000000000000D+00  0.0000000000000D+00
   396  3.9500000000000D+00  0.0000000000000D+00  0.0000000000000D+00
   397  3.9600000000000D+00  0.0000000000000D+00  0.0000000000000D+00
   398  3.9700000000000D+00  0.0000000000000D+00  0.0000000000000D+00
   399  3.9800000000000D+00  0.0000000000000D+00  0.0000000000000D+00
   400  3.9900000000000D+00  0.0000000000000D+00  0.0000000000000D+00
   401  4.0000000000000D+00  0.0000000000000D+00  0.0000000000000D+00
   402  4.0100000000000D+00  0.0000000000000D+00  0.0000000000000D+00
   403  4.0200000000000D+00  0.0000000000000D+00  0.0000000000000D+00
   404  4.0300000000000D+00  0.0000000000000D+00  0.0000000000000D+00
   405  4.0400000000000D+00  0.0000000000000D+00  0.0000000000000D+00
   406  4.0500000000000D+00  0.0000000000000D+00  0.0000000000000D+00
   407  4.0600000000000D+00  0.0000000000000D+00  0.0000000000000D+00
   408  4.0700000000000D+00  0.0000000000000D+00  0.0000000000000D+00
   409  4.0800000000000D+00  0.0000000000000D+00  0.0000000000000D+00
   410  4.0900000000000D+00  0.0000000000000D+00  0.0000000000000D+00
   411  4.1000000000000D+00  0.0000000000000D+00  0.0000000000000D+00
   412  4.1100000000000D+00  0.0000000000000D+00  0.0000000000000D+00
   413  4.1200000000000D+00  0.0000000000000D+00  0.0000000000000D+00
   414  4.1300000000000D+00  0.0000000000000D+00  0.0000000000000D+00
   415  4.1400000000000D+00  0.0000000000000D+00  0.0000000000000D+00
   416  4.1500000000000D+00  0.0000000000000D+00  0.0000000000000D+00
   417  4.1600000000000D+00  0.0000000000000D+00  0.0000000000000D+00
   418  4.1700000000000D+00  0.0000000000000D+00  0.0000000000000D+00
   419  4.1800000000000D+00  0.0000000000000D+00  0.0000000000000D+00
   420  4.1900000000000D+00  0.0000000000000D+00  0.0000000000000D+00
   421  4.2000000000000D+00  0.0000000000000D+00  0.0000000000000D+00
   422  4.2100000000000D+00  0.0000000000000D+00  0.0000000000000D+00