Co    ONCVPSP-3.3.0  r_core=   1.20310   1.20310   1.56413
     27.0000     17.0000      220408    zatom,zion,pspd
     8       2   2     4   600     0    pspcod,pspxc,lmax,lloc,mmax,r2well
  5.99000000  0.00000000  0.00000000    rchrg fchrg qchrg
     2     2     2     0     0    nproj
     1     1           extension_switch
   0                         8.3432803395105D+00 -3.6928284118447D-01
     1  0.0000000000000D+00  3.1236824238334D-10  4.9051811501499D-09
     2  1.0000000000000D-02  1.0459844458599D-01  3.4693797612130D-02
     3  2.0000000000000D-02  2.0884611010914D-01  6.9357461059311D-02
     4  3.0000000000000D-02  3.1239339508660D-01  1.0395751700111D-01
     5  4.0000000000000D-02  4.1489305310129D-01  1.3845389033539D-01
     6  5.0000000000000D-02  5.1600137001739D-01  1.7279679351852D-01
     7  6.0000000000000D-02  6.1537934058688D-01  2.0692384058374D-01
     8  7.0000000000000D-02  7.1269384386908D-01  2.4075745490673D-01
     9  8.0000000000000D-02  8.0761881657266D-01  2.7420263486227D-01
    10  9.0000000000000D-02  8.9983642305052D-01  3.0714513551957D-01
    11  1.0000000000000D-01  9.8903822023970D-01  3.3945011752317D-01
    12  1.1000000000000D-01  1.0749263153494D+00  3.7096130640458D-01
    13  1.2000000000000D-01  1.1572145135702D+00  4.0150069688214D-01
    14  1.3000000000000D-01  1.2356294525168D+00  4.3086882736063D-01
    15  1.4000000000000D-01  1.3099117195377D+00  4.5884563997733D-01
    16  1.5000000000000D-01  1.3798169474399D+00  4.8519193130277D-01
    17  1.6000000000000D-01  1.4451168835944D+00  5.0965138834645D-01
    18  1.7000000000000D-01  1.5056004268282D+00  5.3195319399760D-01
    19  1.8000000000000D-01  1.5610746259792D+00  5.5181517560841D-01
    20  1.9000000000000D-01  1.6113656335017D+00  5.6894746026258D-01
    21  2.0000000000000D-01  1.6563196070831D+00  5.8305659052218D-01
    22  2.1000000000000D-01  1.6958035518713D+00  5.9385004526589D-01
    23  2.2000000000000D-01  1.7297060956302D+00  6.0104110176658D-01
    24  2.3000000000000D-01  1.7579381889498D+00  6.0435396754639D-01
    25  2.4000000000000D-01  1.7804337225452D+00  6.0352910391855D-01
    26  2.5000000000000D-01  1.7971500536935D+00  5.9832865759354D-01
    27  2.6000000000000D-01  1.8080684339830D+00  5.8854191239348D-01
    28  2.7000000000000D-01  1.8131943307979D+00  5.7399067006648D-01
    29  2.8000000000000D-01  1.8125576353275D+00  5.5453446749146D-01
    30  2.9000000000000D-01  1.8062127503761D+00  5.3007553726034D-01
    31  3.0000000000000D-01  1.7942385518673D+00  5.0056341975039D-01
    32  3.1000000000000D-01  1.7767382186646D+00  4.6599913736252D-01
    33  3.2000000000000D-01  1.7538389261810D+00  4.2643884559037D-01
    34  3.3000000000000D-01  1.7256914002083D+00  3.8199688096945D-01
    35  3.4000000000000D-01  1.6924693284601D+00  3.3284813268114D-01
    36  3.5000000000000D-01  1.6543686284737D+00  2.7922967258116D-01
    37  3.6000000000000D-01  1.6116065717555D+00  2.2144158759319D-01
    38  3.7000000000000D-01  1.5644207653554D+00  1.5984696864576D-01
    39  3.8000000000000D-01  1.5130679934180D+00  9.4871021503965D-02
    40  3.9000000000000D-01  1.4578229226545D+00  2.6999276816410D-02
    41  4.0000000000000D-01  1.3989766770981D+00 -4.3225110701080D-02
    42  4.1000000000000D-01  1.3368352889346D+00 -1.1520497095424D-01
    43  4.2000000000000D-01  1.2717180336055D+00 -1.8829361868929D-01
    44  4.3000000000000D-01  1.2039556587657D+00 -2.6180021544980D-01
    45  4.4000000000000D-01  1.1338885180009D+00 -3.3499595012434D-01
    46  4.5000000000000D-01  1.0618646214735D+00 -4.0712098187417D-01
    47  4.6000000000000D-01  9.8823761683072D-01 -4.7739207665101D-01
    48  4.7000000000000D-01  9.1336471477844D-01 -5.4501085661166D-01
    49  4.8000000000000D-01  8.3760457466322D-01 -6.0917257069660D-01
    50  4.9000000000000D-01  7.6131516620896D-01 -6.6907528463660D-01
    51  5.0000000000000D-01  6.8485162420624D-01 -7.2392937985502D-01
    52  5.1000000000000D-01  6.0856411343617D-01 -7.7296724329355D-01
    53  5.2000000000000D-01  5.3279572141995D-01 -8.1545302423722D-01
    54  5.3000000000000D-01  4.5788039670723D-01 -8.5069232987622D-01
    55  5.4000000000000D-01  3.8414095034770D-01 -8.7804172870476D-01
    56  5.5000000000000D-01  3.1188713792347D-01 -8.9691792999893D-01
    57  5.6000000000000D-01  2.4141383905535D-01 -9.0680650858767D-01
    58  5.7000000000000D-01  1.7299935063376D-01 -9.0727004694966D-01
    59  5.8000000000000D-01  1.0690380916591D-01 -8.9795557135493D-01
    60  5.9000000000000D-01  4.3367756587282D-02 -8.7860116525343D-01
    61  6.0000000000000D-01 -1.7389137345202D-02 -8.4904165140640D-01
    62  6.1000000000000D-01 -7.5169184353663D-02 -8.0921324419566D-01
    63  6.2000000000000D-01 -1.2979760846309D-01 -7.5915708510522D-01
    64  6.3000000000000D-01 -1.8112328987249D-01 -6.9902158738513D-01
    65  6.4000000000000D-01 -2.2901931520589D-01 -6.2906353016140D-01
    66  6.5000000000000D-01 -2.7338332940168D-01 -5.4964785775254D-01
    67  6.6000000000000D-01 -3.1413768649102D-01 -4.6124615627097D-01
    68  6.7000000000000D-01 -3.5122939857005D-01 -3.6443379665628D-01
    69  6.8000000000000D-01 -3.8462988436565D-01 -2.5988575091517D-01
    70  6.9000000000000D-01 -4.1433452088786D-01 -1.4837110615637D-01
    71  7.0000000000000D-01 -4.4036200373760D-01 -3.0746318825551D-02
    72  7.1000000000000D-01 -4.6275352367948D-01  9.2052730784026D-02
    73  7.2000000000000D-01 -4.8157176905257D-01  2.1901980656073D-01
    74  7.3000000000000D-01 -4.9689976546132D-01  3.4908841356902D-01
    75  7.4000000000000D-01 -5.0883956594298D-01  4.8114281498541D-01
    76  7.5000000000000D-01 -5.1751080641018D-01  6.1402984578232D-01
    77  7.6000000000000D-01 -5.2304914261670D-01  7.4657138712299D-01
    78  7.7000000000000D-01 -5.2560458614894D-01  8.7757735430308D-01
    79  7.8000000000000D-01 -5.2533975800143D-01  1.0058590417237D+00
    80  7.9000000000000D-01 -5.2242807913255D-01  1.1302426610053D+00
    81  8.0000000000000D-01 -5.1705191800227D-01  1.2495829030894D+00
    82  8.1000000000000D-01 -5.0940071545962D-01  1.3627763521297D+00
    83  8.2000000000000D-01 -4.9966910746506D-01  1.4687745782216D+00
    84  8.3000000000000D-01 -4.8805506599972D-01  1.5665967376111D+00
    85  8.4000000000000D-01 -4.7475807812843D-01  1.6553415129699D+00
    86  8.5000000000000D-01 -4.5997738255007D-01  1.7341982326106D+00
    87  8.6000000000000D-01 -4.4391028209350D-01  1.8024570160845D+00
    88  8.7000000000000D-01 -4.2675054950952D-01  1.8595178043801D+00
    89  8.8000000000000D-01 -4.0868694258200D-01  1.9048981457944D+00
    90  8.9000000000000D-01 -3.8990184305125D-01  1.9382396233449D+00
    91  9.0000000000000D-01 -3.7057003212701D-01  1.9593128261373D+00
    92  9.1000000000000D-01 -3.5085761349111D-01  1.9680207852147D+00
    93  9.2000000000000D-01 -3.3092109267214D-01  1.9644008138375D+00
    94  9.3000000000000D-01 -3.1090661954489D-01  1.9486247126517D+00
    95  9.4000000000000D-01 -2.9094939849154D-01  1.9209973215077D+00
    96  9.5000000000000D-01 -2.7117326849019D-01  1.8819534215214D+00
    97  9.6000000000000D-01 -2.5169045309852D-01  1.8320530130243D+00
    98  9.7000000000000D-01 -2.3260147800962D-01  1.7719750170052D+00
    99  9.8000000000000D-01 -2.1399525158796D-01  1.7025094693570D+00
   100  9.9000000000000D-01 -1.9594930161605D-01  1.6245482980208D+00
   101  1.0000000000000D+00 -1.7853015939437D-01  1.5390747929921D+00
   102  1.0100000000000D+00 -1.6179388032466D-01  1.4471518982214D+00
   103  1.0200000000000D+00 -1.4578668832722D-01  1.3499094712106D+00
   104  1.0300000000000D+00 -1.3054572977921D-01  1.2485306716658D+00
   105  1.0400000000000D+00 -1.1609992121735D-01  1.1442376539354D+00
   106  1.0500000000000D+00 -1.0247087381406D-01  1.0382767491732D+00
   107  1.0600000000000D+00 -8.9673876690827D-02  9.3190333161083D-01
   108  1.0700000000000D+00 -7.7718920309291D-02  8.2636657029703D-01
   109  1.0800000000000D+00 -6.6611740772742D-02  7.2289427070164D-01
   110  1.0900000000000D+00 -5.6354865627264D-02  6.2267801181043D-01
   111  1.1000000000000D+00 -4.6948641855031D-02  5.2685878210975D-01
   112  1.1100000000000D+00 -3.8392226977833D-02  4.3651331453889D-01
   113  1.1200000000000D+00 -3.0684524899527D-02  3.5264131197004D-01
   114  1.1300000000000D+00 -2.3825048871107D-02  2.7615374617836D-01
   115  1.1400000000000D+00 -1.7814695285520D-02  2.0786239857698D-01
   116  1.1500000000000D+00 -1.2656412838343D-02  1.4847080183883D-01
   117  1.1600000000000D+00 -8.3557537152774D-03  9.8566718524894D-02
   118  1.1700000000000D+00 -4.9230676172087D-03  5.8639022632325D-02
   119  1.1800000000000D+00 -2.3552880911973D-03  2.8823045068071D-02
   120  1.1900000000000D+00 -7.0807198504654D-04  9.9117742698321D-03
   121  1.2000000000000D+00  1.6571550599514D-05  1.7435821220096D-03
   122  1.2100000000000D+00  9.5140307377462D-05 -1.2155848888065D-04
   123  1.2200000000000D+00 -1.5395724474979D-05  4.8969101557271D-05
   124  1.2300000000000D+00 -9.3422881227427D-06  3.7058448427338D-05
   125  1.2400000000000D+00  4.7971266202219D-06 -1.2618362238570D-05
   126  1.2500000000000D+00 -1.7443236279885D-07 -1.3944227359461D-06
   127  1.2600000000000D+00 -9.6429655874371D-08 -7.7086443371600D-07
   128  1.2700000000000D+00  0.0000000000000D+00  0.0000000000000D+00
   129  1.2800000000000D+00  0.0000000000000D+00  0.0000000000000D+00
   130  1.2900000000000D+00  0.0000000000000D+00  0.0000000000000D+00
   131  1.3000000000000D+00  0.0000000000000D+00  0.0000000000000D+00
   132  1.3100000000000D+00  0.0000000000000D+00  0.0000000000000D+00
   133  1.3200000000000D+00  0.0000000000000D+00  0.0000000000000D+00
   134  1.3300000000000D+00  0.0000000000000D+00  0.0000000000000D+00
   135  1.3400000000000D+00  0.0000000000000D+00  0.0000000000000D+00
   136  1.3500000000000D+00  0.0000000000000D+00  0.0000000000000D+00
   137  1.3600000000000D+00  0.0000000000000D+00  0.0000000000000D+00
   138  1.3700000000000D+00  0.0000000000000D+00  0.0000000000000D+00
   139  1.3800000000000D+00  0.0000000000000D+00  0.0000000000000D+00
   140  1.3900000000000D+00  0.0000000000000D+00  0.0000000000000D+00
   141  1.4000000000000D+00  0.0000000000000D+00  0.0000000000000D+00
   142  1.4100000000000D+00  0.0000000000000D+00  0.0000000000000D+00
   143  1.4200000000000D+00  0.0000000000000D+00  0.0000000000000D+00
   144  1.4300000000000D+00  0.0000000000000D+00  0.0000000000000D+00
   145  1.4400000000000D+00  0.0000000000000D+00  0.0000000000000D+00
   146  1.4500000000000D+00  0.0000000000000D+00  0.0000000000000D+00
   147  1.4600000000000D+00  0.0000000000000D+00  0.0000000000000D+00
   148  1.4700000000000D+00  0.0000000000000D+00  0.0000000000000D+00
   149  1.4800000000000D+00  0.0000000000000D+00  0.0000000000000D+00
   150  1.4900000000000D+00  0.0000000000000D+00  0.0000000000000D+00
   151  1.5000000000000D+00  0.0000000000000D+00  0.0000000000000D+00
   152  1.5100000000000D+00  0.0000000000000D+00  0.0000000000000D+00
   153  1.5200000000000D+00  0.0000000000000D+00  0.0000000000000D+00
   154  1.5300000000000D+00  0.0000000000000D+00  0.0000000000000D+00
   155  1.5400000000000D+00  0.0000000000000D+00  0.0000000000000D+00
   156  1.5500000000000D+00  0.0000000000000D+00  0.0000000000000D+00
   157  1.5600000000000D+00  0.0000000000000D+00  0.0000000000000D+00
   158  1.5700000000000D+00  0.0000000000000D+00  0.0000000000000D+00
   159  1.5800000000000D+00  0.0000000000000D+00  0.0000000000000D+00
   160  1.5900000000000D+00  0.0000000000000D+00  0.0000000000000D+00
   161  1.6000000000000D+00  0.0000000000000D+00  0.0000000000000D+00
   162  1.6100000000000D+00  0.0000000000000D+00  0.0000000000000D+00
   163  1.6200000000000D+00  0.0000000000000D+00  0.0000000000000D+00
   164  1.6300000000000D+00  0.0000000000000D+00  0.0000000000000D+00
   165  1.6400000000000D+00  0.0000000000000D+00  0.0000000000000D+00
   166  1.6500000000000D+00  0.0000000000000D+00  0.0000000000000D+00
   167  1.6600000000000D+00  0.0000000000000D+00  0.0000000000000D+00
   168  1.6700000000000D+00  0.0000000000000D+00  0.0000000000000D+00
   169  1.6800000000000D+00  0.0000000000000D+00  0.0000000000000D+00
   170  1.6900000000000D+00  0.0000000000000D+00  0.0000000000000D+00
   171  1.7000000000000D+00  0.0000000000000D+00  0.0000000000000D+00
   172  1.7100000000000D+00  0.0000000000000D+00  0.0000000000000D+00
   173  1.7200000000000D+00  0.0000000000000D+00  0.0000000000000D+00
   174  1.7300000000000D+00  0.0000000000000D+00  0.0000000000000D+00
   175  1.7400000000000D+00  0.0000000000000D+00  0.0000000000000D+00
   176  1.7500000000000D+00  0.0000000000000D+00  0.0000000000000D+00
   177  1.7600000000000D+00  0.0000000000000D+00  0.0000000000000D+00
   178  1.7700000000000D+00  0.0000000000000D+00  0.0000000000000D+00
   179  1.7800000000000D+00  0.0000000000000D+00  0.0000000000000D+00
   180  1.7900000000000D+00  0.0000000000000D+00  0.0000000000000D+00
   181  1.8000000000000D+00  0.0000000000000D+00  0.0000000000000D+00
   182  1.8100000000000D+00  0.0000000000000D+00  0.0000000000000D+00
   183  1.8200000000000D+00  0.0000000000000D+00  0.0000000000000D+00
   184  1.8300000000000D+00  0.0000000000000D+00  0.0000000000000D+00
   185  1.8400000000000D+00  0.0000000000000D+00  0.0000000000000D+00
   186  1.8500000000000D+00  0.0000000000000D+00  0.0000000000000D+00
   187  1.8600000000000D+00  0.0000000000000D+00  0.0000000000000D+00
   188  1.8700000000000D+00  0.0000000000000D+00  0.0000000000000D+00
   189  1.8800000000000D+00  0.0000000000000D+00  0.0000000000000D+00
   190  1.8900000000000D+00  0.0000000000000D+00  0.0000000000000D+00
   191  1.9000000000000D+00  0.0000000000000D+00  0.0000000000000D+00
   192  1.9100000000000D+00  0.0000000000000D+00  0.0000000000000D+00
   193  1.9200000000000D+00  0.0000000000000D+00  0.0000000000000D+00
   194  1.9300000000000D+00  0.0000000000000D+00  0.0000000000000D+00
   195  1.9400000000000D+00  0.0000000000000D+00  0.0000000000000D+00
   196  1.9500000000000D+00  0.0000000000000D+00  0.0000000000000D+00
   197  1.9600000000000D+00  0.0000000000000D+00  0.0000000000000D+00
   198  1.9700000000000D+00  0.0000000000000D+00  0.0000000000000D+00
   199  1.9800000000000D+00  0.0000000000000D+00  0.0000000000000D+00
   200  1.9900000000000D+00  0.0000000000000D+00  0.0000000000000D+00
   201  2.0000000000000D+00  0.0000000000000D+00  0.0000000000000D+00
   202  2.0100000000000D+00  0.0000000000000D+00  0.0000000000000D+00
   203  2.0200000000000D+00  0.0000000000000D+00  0.0000000000000D+00
   204  2.0300000000000D+00  0.0000000000000D+00  0.0000000000000D+00
   205  2.0400000000000D+00  0.0000000000000D+00  0.0000000000000D+00
   206  2.0500000000000D+00  0.0000000000000D+00  0.0000000000000D+00
   207  2.0600000000000D+00  0.0000000000000D+00  0.0000000000000D+00
   208  2.0700000000000D+00  0.0000000000000D+00  0.0000000000000D+00
   209  2.0800000000000D+00  0.0000000000000D+00  0.0000000000000D+00
   210  2.0900000000000D+00  0.0000000000000D+00  0.0000000000000D+00
   211  2.1000000000000D+00  0.0000000000000D+00  0.0000000000000D+00
   212  2.1100000000000D+00  0.0000000000000D+00  0.0000000000000D+00
   213  2.1200000000000D+00  0.0000000000000D+00  0.0000000000000D+00
   214  2.1300000000000D+00  0.0000000000000D+00  0.0000000000000D+00
   215  2.1400000000000D+00  0.0000000000000D+00  0.0000000000000D+00
   216  2.1500000000000D+00  0.0000000000000D+00  0.0000000000000D+00
   217  2.1600000000000D+00  0.0000000000000D+00  0.0000000000000D+00
   218  2.1700000000000D+00  0.0000000000000D+00  0.0000000000000D+00
   219  2.1800000000000D+00  0.0000000000000D+00  0.0000000000000D+00
   220  2.1900000000000D+00  0.0000000000000D+00  0.0000000000000D+00
   221  2.2000000000000D+00  0.0000000000000D+00  0.0000000000000D+00
   222  2.2100000000000D+00  0.0000000000000D+00  0.0000000000000D+00
   223  2.2200000000000D+00  0.0000000000000D+00  0.0000000000000D+00
   224  2.2300000000000D+00  0.0000000000000D+00  0.0000000000000D+00
   225  2.2400000000000D+00  0.0000000000000D+00  0.0000000000000D+00
   226  2.2500000000000D+00  0.0000000000000D+00  0.0000000000000D+00
   227  2.2600000000000D+00  0.0000000000000D+00  0.0000000000000D+00
   228  2.2700000000000D+00  0.0000000000000D+00  0.0000000000000D+00
   229  2.2800000000000D+00  0.0000000000000D+00  0.0000000000000D+00
   230  2.2900000000000D+00  0.0000000000000D+00  0.0000000000000D+00
   231  2.3000000000000D+00  0.0000000000000D+00  0.0000000000000D+00
   232  2.3100000000000D+00  0.0000000000000D+00  0.0000000000000D+00
   233  2.3200000000000D+00  0.0000000000000D+00  0.0000000000000D+00
   234  2.3300000000000D+00  0.0000000000000D+00  0.0000000000000D+00
   235  2.3400000000000D+00  0.0000000000000D+00  0.0000000000000D+00
   236  2.3500000000000D+00  0.0000000000000D+00  0.0000000000000D+00
   237  2.3600000000000D+00  0.0000000000000D+00  0.0000000000000D+00
   238  2.3700000000000D+00  0.0000000000000D+00  0.0000000000000D+00
   239  2.3800000000000D+00  0.0000000000000D+00  0.0000000000000D+00
   240  2.3900000000000D+00  0.0000000000000D+00  0.0000000000000D+00
   241  2.4000000000000D+00  0.0000000000000D+00  0.0000000000000D+00
   242  2.4100000000000D+00  0.0000000000000D+00  0.0000000000000D+00
   243  2.4200000000000D+00  0.0000000000000D+00  0.0000000000000D+00
   244  2.4300000000000D+00  0.0000000000000D+00  0.0000000000000D+00
   245  2.4400000000000D+00  0.0000000000000D+00  0.0000000000000D+00
   246  2.4500000000000D+00  0.0000000000000D+00  0.0000000000000D+00
   247  2.4600000000000D+00  0.0000000000000D+00  0.0000000000000D+00
   248  2.4700000000000D+00  0.0000000000000D+00  0.0000000000000D+00
   249  2.4800000000000D+00  0.0000000000000D+00  0.0000000000000D+00
   250  2.4900000000000D+00  0.0000000000000D+00  0.0000000000000D+00
   251  2.5000000000000D+00  0.0000000000000D+00  0.0000000000000D+00
   252  2.5100000000000D+00  0.0000000000000D+00  0.0000000000000D+00
   253  2.5200000000000D+00  0.0000000000000D+00  0.0000000000000D+00
   254  2.5300000000000D+00  0.0000000000000D+00  0.0000000000000D+00
   255  2.5400000000000D+00  0.0000000000000D+00  0.0000000000000D+00
   256  2.5500000000000D+00  0.0000000000000D+00  0.0000000000000D+00
   257  2.5600000000000D+00  0.0000000000000D+00  0.0000000000000D+00
   258  2.5700000000000D+00  0.0000000000000D+00  0.0000000000000D+00
   259  2.5800000000000D+00  0.0000000000000D+00  0.0000000000000D+00
   260  2.5900000000000D+00  0.0000000000000D+00  0.0000000000000D+00
   261  2.6000000000000D+00  0.0000000000000D+00  0.0000000000000D+00
   262  2.6100000000000D+00  0.0000000000000D+00  0.0000000000000D+00
   263  2.6200000000000D+00  0.0000000000000D+00  0.0000000000000D+00
   264  2.6300000000000D+00  0.0000000000000D+00  0.0000000000000D+00
   265  2.6400000000000D+00  0.0000000000000D+00  0.0000000000000D+00
   266  2.6500000000000D+00  0.0000000000000D+00  0.0000000000000D+00
   267  2.6600000000000D+00  0.0000000000000D+00  0.0000000000000D+00
   268  2.6700000000000D+00  0.0000000000000D+00  0.0000000000000D+00
   269  2.6800000000000D+00  0.0000000000000D+00  0.0000000000000D+00
   270  2.6900000000000D+00  0.0000000000000D+00  0.0000000000000D+00
   271  2.7000000000000D+00  0.0000000000000D+00  0.0000000000000D+00
   272  2.7100000000000D+00  0.0000000000000D+00  0.0000000000000D+00
   273  2.7200000000000D+00  0.0000000000000D+00  0.0000000000000D+00
   274  2.7300000000000D+00  0.0000000000000D+00  0.0000000000000D+00
   275  2.7400000000000D+00  0.0000000000000D+00  0.0000000000000D+00
   276  2.7500000000000D+00  0.0000000000000D+00  0.0000000000000D+00
   277  2.7600000000000D+00  0.0000000000000D+00  0.0000000000000D+00
   278  2.7700000000000D+00  0.0000000000000D+00  0.0000000000000D+00
   279  2.7800000000000D+00  0.0000000000000D+00  0.0000000000000D+00
   280  2.7900000000000D+00  0.0000000000000D+00  0.0000000000000D+00
   281  2.8000000000000D+00  0.0000000000000D+00  0.0000000000000D+00
   282  2.8100000000000D+00  0.0000000000000D+00  0.0000000000000D+00
   283  2.8200000000000D+00  0.0000000000000D+00  0.0000000000000D+00
   284  2.8300000000000D+00  0.0000000000000D+00  0.0000000000000D+00
   285  2.8400000000000D+00  0.0000000000000D+00  0.0000000000000D+00
   286  2.8500000000000D+00  0.0000000000000D+00  0.0000000000000D+00
   287  2.8600000000000D+00  0.0000000000000D+00  0.0000000000000D+00
   288  2.8700000000000D+00  0.0000000000000D+00  0.0000000000000D+00
   289  2.8800000000000D+00  0.0000000000000D+00  0.0000000000000D+00
   290  2.8900000000000D+00  0.0000000000000D+00  0.0000000000000D+00
   291  2.9000000000000D+00  0.0000000000000D+00  0.0000000000000D+00
   292  2.9100000000000D+00  0.0000000000000D+00  0.0000000000000D+00
   293  2.9200000000000D+00  0.0000000000000D+00  0.0000000000000D+00
   294  2.9300000000000D+00  0.0000000000000D+00  0.0000000000000D+00
   295  2.9400000000000D+00  0.0000000000000D+00  0.0000000000000D+00
   296  2.9500000000000D+00  0.0000000000000D+00  0.0000000000000D+00
   297  2.9600000000000D+00  0.0000000000000D+00  0.0000000000000D+00
   298  2.9700000000000D+00  0.0000000000000D+00  0.0000000000000D+00
   299  2.9800000000000D+00  0.0000000000000D+00  0.0000000000000D+00
   300  2.9900000000000D+00  0.0000000000000D+00  0.0000000000000D+00
   301  3.0000000000000D+00  0.0000000000000D+00  0.0000000000000D+00
   302  3.0100000000000D+00  0.0000000000000D+00  0.0000000000000D+00
   303  3.0200000000000D+00  0.0000000000000D+00  0.0000000000000D+00
   304  3.0300000000000D+00  0.0000000000000D+00  0.0000000000000D+00
   305  3.0400000000000D+00  0.0000000000000D+00  0.0000000000000D+00
   306  3.0500000000000D+00  0.0000000000000D+00  0.0000000000000D+00
   307  3.0600000000000D+00  0.0000000000000D+00  0.0000000000000D+00
   308  3.0700000000000D+00  0.0000000000000D+00  0.0000000000000D+00
   309  3.0800000000000D+00  0.0000000000000D+00  0.0000000000000D+00
   310  3.0900000000000D+00  0.0000000000000D+00  0.0000000000000D+00
   311  3.1000000000000D+00  0.0000000000000D+00  0.0000000000000D+00
   312  3.1100000000000D+00  0.0000000000000D+00  0.0000000000000D+00
   313  3.1200000000000D+00  0.0000000000000D+00  0.0000000000000D+00
   314  3.1300000000000D+00  0.0000000000000D+00  0.0000000000000D+00
   315  3.1400000000000D+00  0.0000000000000D+00  0.0000000000000D+00
   316  3.1500000000000D+00  0.0000000000000D+00  0.0000000000000D+00
   317  3.1600000000000D+00  0.0000000000000D+00  0.0000000000000D+00
   318  3.1700000000000D+00  0.0000000000000D+00  0.0000000000000D+00
   319  3.1800000000000D+00  0.0000000000000D+00  0.0000000000000D+00
   320  3.1900000000000D+00  0.0000000000000D+00  0.0000000000000D+00
   321  3.2000000000000D+00  0.0000000000000D+00  0.0000000000000D+00
   322  3.2100000000000D+00  0.0000000000000D+00  0.0000000000000D+00
   323  3.2200000000000D+00  0.0000000000000D+00  0.0000000000000D+00
   324  3.2300000000000D+00  0.0000000000000D+00  0.0000000000000D+00
   325  3.2400000000000D+00  0.0000000000000D+00  0.0000000000000D+00
   326  3.2500000000000D+00  0.0000000000000D+00  0.0000000000000D+00
   327  3.2600000000000D+00  0.0000000000000D+00  0.0000000000000D+00
   328  3.2700000000000D+00  0.0000000000000D+00  0.0000000000000D+00
   329  3.2800000000000D+00  0.0000000000000D+00  0.0000000000000D+00
   330  3.2900000000000D+00  0.0000000000000D+00  0.0000000000000D+00
   331  3.3000000000000D+00  0.0000000000000D+00  0.0000000000000D+00
   332  3.3100000000000D+00  0.0000000000000D+00  0.0000000000000D+00
   333  3.3200000000000D+00  0.0000000000000D+00  0.0000000000000D+00
   334  3.3300000000000D+00  0.0000000000000D+00  0.0000000000000D+00
   335  3.3400000000000D+00  0.0000000000000D+00  0.0000000000000D+00
   336  3.3500000000000D+00  0.0000000000000D+00  0.0000000000000D+00
   337  3.3600000000000D+00  0.0000000000000D+00  0.0000000000000D+00
   338  3.3700000000000D+00  0.0000000000000D+00  0.0000000000000D+00
   339  3.3800000000000D+00  0.0000000000000D+00  0.0000000000000D+00
   340  3.3900000000000D+00  0.0000000000000D+00  0.0000000000000D+00
   341  3.4000000000000D+00  0.0000000000000D+00  0.0000000000000D+00
   342  3.4100000000000D+00  0.0000000000000D+00  0.0000000000000D+00
   343  3.4200000000000D+00  0.0000000000000D+00  0.0000000000000D+00
   344  3.4300000000000D+00  0.0000000000000D+00  0.0000000000000D+00
   345  3.4400000000000D+00  0.0000000000000D+00  0.0000000000000D+00
   346  3.4500000000000D+00  0.0000000000000D+00  0.0000000000000D+00
   347  3.4600000000000D+00  0.0000000000000D+00  0.0000000000000D+00
   348  3.4700000000000D+00  0.0000000000000D+00  0.0000000000000D+00
   349  3.4800000000000D+00  0.0000000000000D+00  0.0000000000000D+00
   350  3.4900000000000D+00  0.0000000000000D+00  0.0000000000000D+00
   351  3.5000000000000D+00  0.0000000000000D+00  0.0000000000000D+00
   352  3.5100000000000D+00  0.0000000000000D+00  0.0000000000000D+00
   353  3.5200000000000D+00  0.0000000000000D+00  0.0000000000000D+00
   354  3.5300000000000D+00  0.0000000000000D+00  0.0000000000000D+00
   355  3.5400000000000D+00  0.0000000000000D+00  0.0000000000000D+00
   356  3.5500000000000D+00  0.0000000000000D+00  0.0000000000000D+00
   357  3.5600000000000D+00  0.0000000000000D+00  0.0000000000000D+00
   358  3.5700000000000D+00  0.0000000000000D+00  0.0000000000000D+00
   359  3.5800000000000D+00  0.0000000000000D+00  0.0000000000000D+00
   360  3.5900000000000D+00  0.0000000000000D+00  0.0000000000000D+00
   361  3.6000000000000D+00  0.0000000000000D+00  0.0000000000000D+00
   362  3.6100000000000D+00  0.0000000000000D+00  0.0000000000000D+00
   363  3.6200000000000D+00  0.0000000000000D+00  0.0000000000000D+00
   364  3.6300000000000D+00  0.0000000000000D+00  0.0000000000000D+00
   365  3.6400000000000D+00  0.0000000000000D+00  0.0000000000000D+00
   366  3.6500000000000D+00  0.0000000000000D+00  0.0000000000000D+00
   367  3.6600000000000D+00  0.0000000000000D+00  0.0000000000000D+00
   368  3.6700000000000D+00  0.0000000000000D+00  0.0000000000000D+00
   369  3.6800000000000D+00  0.0000000000000D+00  0.0000000000000D+00
   370  3.6900000000000D+00  0.0000000000000D+00  0.0000000000000D+00
   371  3.7000000000000D+00  0.0000000000000D+00  0.0000000000000D+00
   372  3.7100000000000D+00  0.0000000000000D+00  0.0000000000000D+00
   373  3.7200000000000D+00  0.0000000000000D+00  0.0000000000000D+00
   374  3.7300000000000D+00  0.0000000000000D+00  0.0000000000000D+00
   375  3.7400000000000D+00  0.0000000000000D+00  0.0000000000000D+00
   376  3.7500000000000D+00  0.0000000000000D+00  0.0000000000000D+00
   377  3.7600000000000D+00  0.0000000000000D+00  0.0000000000000D+00
   378  3.7700000000000D+00  0.0000000000000D+00  0.0000000000000D+00
   379  3.7800000000000D+00  0.0000000000000D+00  0.0000000000000D+00
   380  3.7900000000000D+00  0.0000000000000D+00  0.0000000000000D+00
   381  3.8000000000000D+00  0.0000000000000D+00  0.0000000000000D+00
   382  3.8100000000000D+00  0.0000000000000D+00  0.0000000000000D+00
   383  3.8200000000000D+00  0.0000000000000D+00  0.0000000000000D+00
   384  3.8300000000000D+00  0.0000000000000D+00  0.0000000000000D+00
   385  3.8400000000000D+00  0.0000000000000D+00  0.0000000000000D+00
   386  3.8500000000000D+00  0.0000000000000D+00  0.0000000000000D+00
   387  3.8600000000000D+00  0.0000000000000D+00  0.0000000000000D+00
   388  3.8700000000000D+00  0.0000000000000D+00  0.0000000000000D+00
   389  3.8800000000000D+00  0.0000000000000D+00  0.0000000000000D+00
   390  3.8900000000000D+00  0.0000000000000D+00  0.0000000000000D+00
   391  3.9000000000000D+00  0.0000000000000D+00  0.0000000000000D+00
   392  3.9100000000000D+00  0.0000000000000D+00  0.0000000000000D+00
   393  3.9200000000000D+00  0.0000000000000D+00  0.0000000000000D+00
   394  3.9300000000000D+00  0.0000000000000D+00  0.0000000000000D+00
   395  3.9400000000000D+00  0.0000000000000D+00  0.0000000000000D+00
   396  3.9500000000000D+00  0.0000000000000D+00  0.0000000000000D+00
   397  3.9600000000000D+00  0.0000000000000D+00  0.0000000000000D+00
   398  3.9700000000000D+00  0.0000000000000D+00  0.0000000000000D+00
   399  3.9800000000000D+00  0.0000000000000D+00  0.0000000000000D+00
   400  3.9900000000000D+00  0.0000000000000D+00  0.0000000000000D+00
   401  4.0000000000000D+00  0.0000000000000D+00  0.0000000000000D+00
   402  4.0100000000000D+00  0.0000000000000D+00  0.0000000000000D+00
   403  4.0200000000000D+00  0.0000000000000D+00  0.0000000000000D+00
   404  4.0300000000000D+00  0.0000000000000D+00  0.0000000000000D+00
   405  4.0400000000000D+00  0.0000000000000D+00  0.0000000000000D+00
   406  4.0500000000000D+00  0.0000000000000D+00  0.0000000000000D+00
   407  4.0600000000000D+00  0.0000000000000D+00  0.0000000000000D+00
   408  4.0700000000000D+00  0.0000000000000D+00  0.0000000000000D+00
   409  4.0800000000000D+00  0.0000000000000D+00  0.0000000000000D+00
   410  4.0900000000000D+00  0.0000000000000D+00  0.0000000000000D+00
   411  4.1000000000000D+00  0.0000000000000D+00  0.0000000000000D+00
   412  4.1100000000000D+00  0.0000000000000D+00  0.0000000000000D+00
   413  4.1200000000000D+00  0.0000000000000D+00  0.0000000000000D+00
   414  4.1300000000000D+00  0.0000000000000D+00  0.0000000000000D+00
   415  4.1400000000000D+00  0.0000000000000D+00  0.0000000000000D+00
   416  4.1500000000000D+00  0.0000000000000D+00  0.0000000000000D+00
   417  4.1600000000000D+00  0.0000000000000D+00  0.0000000000000D+00
   418  4.1700000000000D+00  0.0000000000000D+00  0.0000000000000D+00
   419  4.1800000000000D+00  0.0000000000000D+00  0.0000000000000D+00
   420  4.1900000000000D+00  0.0000000000000D+00  0.0000000000000D+00
   421  4.2000000000000D+00  0.0000000000000D+00  0.0000000000000D+00
   422  4.2100000000000D+00  0.0000000000000D+00  0.0000000000000D+00