Zr    ONCVPSP-3.3.0  r_core=   1.56507   1.56507   1.51006
     40.0000     12.0000      220408    zatom,zion,pspd
     8       2   2     4   600     0    pspcod,pspxc,lmax,lloc,mmax,r2well
  5.99000000  0.00000000  0.00000000    rchrg fchrg qchrg
     2     2     2     0     0    nproj
     1     1           extension_switch
   0                         1.0511734102851D+01  8.6531014123481D-01
     1  0.0000000000000D+00 -2.1968338259626D-10  1.0963314145407D-09
     2  1.0000000000000D-02  5.6883328642323D-02 -3.2586477766562D-02
     3  2.0000000000000D-02  1.1366923394504D-01 -6.4977492268144D-02
     4  3.0000000000000D-02  1.7026070497427D-01 -9.6979366651069D-02
     5  4.0000000000000D-02  2.2656155125194D-01 -1.2840197474303D-01
     6  5.0000000000000D-02  2.8247680215132D-01 -1.5906046132346D-01
     7  6.0000000000000D-02  3.3791309345169D-01 -1.8877689709764D-01
     8  7.0000000000000D-02  3.9277903703331D-01 -2.1738184791251D-01
     9  8.0000000000000D-02  4.4698556991306D-01 -2.4471583884823D-01
    10  9.0000000000000D-02  5.0044627909115D-01 -2.7063069516482D-01
    11  1.0000000000000D-01  5.5307769899424D-01 -2.9499074365960D-01
    12  1.1000000000000D-01  6.0479957865867D-01 -3.1767385978091D-01
    13  1.2000000000000D-01  6.5553511619271D-01 -3.3857234782259D-01
    14  1.3000000000000D-01  7.0521115848535D-01 -3.5759364366955D-01
    15  1.4000000000000D-01  7.5375836458408D-01 -3.7466083184859D-01
    16  1.5000000000000D-01  8.0111133164143D-01 -3.8971297103424D-01
    17  1.6000000000000D-01  8.4720868282189D-01 -4.0270522463474D-01
    18  1.7000000000000D-01  8.9199311706164D-01 -4.1360879560918D-01
    19  1.8000000000000D-01  9.3541142107735D-01 -4.2241066721049D-01
    20  1.9000000000000D-01  9.7741444451937D-01 -4.2911315387867D-01
    21  2.0000000000000D-01  1.0179570396533D+00 -4.3373326899235D-01
    22  2.1000000000000D-01  1.0569979674257D+00 -4.3630191859324D-01
    23  2.2000000000000D-01  1.0944997722185D+00 -4.3686293249541D-01
    24  2.3000000000000D-01  1.1304286280144D+00 -4.3547194635184D-01
    25  2.4000000000000D-01  1.1647541590817D+00 -4.3219515024433D-01
    26  2.5000000000000D-01  1.1974492386287D+00 -4.2710792116469D-01
    27  2.6000000000000D-01  1.2284897691792D+00 -4.2029335834157D-01
    28  2.7000000000000D-01  1.2578544486685D+00 -4.1184074171538D-01
    29  2.8000000000000D-01  1.2855245264563D+00 -4.0184393495675D-01
    30  2.9000000000000D-01  1.3114835535957D+00 -3.9039975524561D-01
    31  3.0000000000000D-01  1.3357171317789D+00 -3.7760633256523D-01
    32  3.1000000000000D-01  1.3582126654018D+00 -3.6356148151151D-01
    33  3.2000000000000D-01  1.3789591211561D+00 -3.4836110856543D-01
    34  3.3000000000000D-01  1.3979467994549D+00 -3.3209767742523D-01
    35  3.4000000000000D-01  1.4151671218404D+00 -3.1485875434644D-01
    36  3.5000000000000D-01  1.4306124383081D+00 -2.9672565449906D-01
    37  3.6000000000000D-01  1.4442758582017D+00 -2.7777220912923D-01
    38  3.7000000000000D-01  1.4561511080131D+00 -2.5806367182386D-01
    39  3.8000000000000D-01  1.4662324190391D+00 -2.3765578043545D-01
    40  3.9000000000000D-01  1.4745144474260D+00 -2.1659398925027D-01
    41  4.0000000000000D-01  1.4809922286703D+00 -1.9491288380164D-01
    42  4.1000000000000D-01  1.4856611681449D+00 -1.7263578836346D-01
    43  4.2000000000000D-01  1.4885170686922D+00 -1.4977457363947D-01
    44  4.3000000000000D-01  1.4895561957766D+00 -1.2632966951792D-01
    45  4.4000000000000D-01  1.4887753801236D+00 -1.0229028502492D-01
    46  4.5000000000000D-01  1.4861721571977D+00 -7.7634834814004D-02
    47  4.6000000000000D-01  1.4817449422964D+00 -5.2331568711313D-02
    48  4.7000000000000D-01  1.4754932394692D+00 -2.6339398029453D-02
    49  4.8000000000000D-01  1.4674178819154D+00  3.9109039479162D-04
    50  4.9000000000000D-01  1.4575213009795D+00  2.7916444158002D-02
    51  5.0000000000000D-01  1.4458078203583D+00  5.6298993517558D-02
    52  5.1000000000000D-01  1.4322839716647D+00  8.5605354566143D-02
    53  5.2000000000000D-01  1.4169588270622D+00  1.1590480624882D-01
    54  5.3000000000000D-01  1.3998443443083D+00  1.4726756212114D-01
    55  5.4000000000000D-01  1.3809557192148D+00  1.7976295950461D-01
    56  5.5000000000000D-01  1.3603117402715D+00  2.1345759018817D-01
    57  5.6000000000000D-01  1.3379351399705D+00  2.4841339802250D-01
    58  5.7000000000000D-01  1.3138529372381D+00  2.8468576964406D-01
    59  5.8000000000000D-01  1.2880967653111D+00  3.2232164513006D-01
    60  5.9000000000000D-01  1.2607031794030D+00  3.6135767561351D-01
    61  6.0000000000000D-01  1.2317139385845D+00  4.0181845477100D-01
    62  6.1000000000000D-01  1.2011762564548D+00  4.4371485063306D-01
    63  6.2000000000000D-01  1.1691430154100D+00  4.8704246335938D-01
    64  6.3000000000000D-01  1.1356729396087D+00  5.3178023346690D-01
    65  6.4000000000000D-01  1.1008307221050D+00  5.7788922352913D-01
    66  6.5000000000000D-01  1.0646871020510D+00  6.2531159455835D-01
    67  6.6000000000000D-01  1.0273188883648D+00  6.7396979619294D-01
    68  6.7000000000000D-01  9.8880892681108D-01  7.2376598744882D-01
    69  6.8000000000000D-01  9.4924600804305D-01  7.7458170216266D-01
    70  6.9000000000000D-01  9.0872471479989D-01  8.2627777042129D-01
    71  7.0000000000000D-01  8.6734520713593D-01  8.7869450424469D-01
    72  7.1000000000000D-01  8.2521294526877D-01  9.3165215260843D-01
    73  7.2000000000000D-01  7.8243835036726D-01  9.8495162759174D-01
    74  7.3000000000000D-01  7.3913640434310D-01  1.0383755000720D+00
    75  7.4000000000000D-01  6.9542619045882D-01  1.0916892599764D+00
    76  7.5000000000000D-01  6.5143037730542D-01  1.1446428327084D+00
    77  7.6000000000000D-01  6.0727464943035D-01  1.1969723400182D+00
    78  7.7000000000000D-01  5.6308708860006D-01  1.2484020903246D+00
    79  7.8000000000000D-01  5.1899751034952D-01  1.2986467803841D+00
    80  7.9000000000000D-01  4.7513676109994D-01  1.3474138872513D+00
    81  8.0000000000000D-01  4.3163598170291D-01  1.3944062267439D+00
    82  8.1000000000000D-01  3.8862584378965D-01  1.4393246521437D+00
    83  8.2000000000000D-01  3.4623576575820D-01  1.4818708646690D+00
    84  8.3000000000000D-01  3.0459311561487D-01  1.5217503053712D+00
    85  8.4000000000000D-01  2.6382240819164D-01  1.5586750965723D+00
    86  8.5000000000000D-01  2.2404450448473D-01  1.5923669997877D+00
    87  8.6000000000000D-01  1.8537582099699D-01  1.6225603562952D+00
    88  8.7000000000000D-01  1.4792755701473D-01  1.6490049761266D+00
    89  8.8000000000000D-01  1.1180494770677D-01  1.6714689412864D+00
    90  8.9000000000000D-01  7.7106550799223D-02  1.6897412894428D+00
    91  9.0000000000000D-01  4.3923574353191D-02  1.7036345451984D+00
    92  9.1000000000000D-01  1.2339252856468D-02  1.7129870673127D+00
    93  9.2000000000000D-01 -1.7571721562827D-02  1.7176651819208D+00
    94  9.3000000000000D-01 -4.5743706480380D-02  1.7175650738427D+00
    95  9.4000000000000D-01 -7.2120549323611D-02  1.7126144104955D+00
    96  9.5000000000000D-01 -9.6655955209043D-02  1.7027736756768D+00
    97  9.6000000000000D-01 -1.1931377806120D-01  1.6880371935466D+00
    98  9.7000000000000D-01 -1.4006823136831D-01  1.6684338264704D+00
    99  9.8000000000000D-01 -1.5890401575809D-01  1.6440273340073D+00
   100  9.9000000000000D-01 -1.7581636140777D-01  1.6149163839849D+00
   101  1.0000000000000D+00 -1.9081098422049D-01  1.5812342106502D+00
   102  1.0100000000000D+00 -2.0390395559612D-01  1.5431479188489D+00
   103  1.0200000000000D+00 -2.1512148654751D-01  1.5008574372760D+00
   104  1.0300000000000D+00 -2.2449962783441D-01  1.4545941279311D+00
   105  1.0400000000000D+00 -2.3208388870764D-01  1.4046190630071D+00
   106  1.0500000000000D+00 -2.3792877773148D-01  1.3512209843361D+00
   107  1.0600000000000D+00 -2.4209726999915D-01  1.2947139642960D+00
   108  1.0700000000000D+00 -2.4466020590908D-01  1.2354347908799D+00
   109  1.0800000000000D+00 -2.4569562738629D-01  1.1737401028369D+00
   110  1.0900000000000D+00 -2.4528805816237D-01  1.1100033040394D+00
   111  1.1000000000000D+00 -2.4352773532078D-01  1.0446112888881D+00
   112  1.1100000000000D+00 -2.4050979987545D-01  9.7796101306086D-01
   113  1.1200000000000D+00 -2.3633345463011D-01  9.1045594605313D-01
   114  1.1300000000000D+00 -2.3110109790033D-01  8.4250244343784D-01
   115  1.1400000000000D+00 -2.2491744195033D-01  7.7450607796298D-01
   116  1.1500000000000D+00 -2.1788862517458D-01  7.0686796938523D-01
   117  1.1600000000000D+00 -2.1012132712578D-01  6.3998115322487D-01
   118  1.1700000000000D+00 -2.0172189540802D-01  5.7422702822548D-01
   119  1.1800000000000D+00 -1.9279549330943D-01  5.0997192161572D-01
   120  1.1900000000000D+00 -1.8344527686340D-01  4.4756381040437D-01
   121  1.2000000000000D+00 -1.7377160957817D-01  3.8732923486451D-01
   122  1.2100000000000D+00 -1.6387132253930D-01  3.2957043790483D-01
   123  1.2200000000000D+00 -1.5383702735868D-01  2.7456276296189D-01
   124  1.2300000000000D+00 -1.4375648845048D-01  2.2255233849126D-01
   125  1.2400000000000D+00 -1.3371206043370D-01  1.7375407402340D-01
   126  1.2500000000000D+00 -1.2378019594938D-01  1.2834999040614D-01
   127  1.2600000000000D+00 -1.1403102811984D-01  8.6487902003463D-02
   128  1.2700000000000D+00 -1.0452803071773D-01  4.8280463324010D-02
   129  1.2800000000000D+00 -9.5327758686266D-02  1.3804590603912D-02
   130  1.2900000000000D+00 -8.6479670458959D-02 -1.6898736581320D-02
   131  1.3000000000000D+00 -7.8026032006194D-02 -4.3824295538841D-02
   132  1.3100000000000D+00 -7.0001902470886D-02 -6.7002064673413D-02
   133  1.3200000000000D+00 -6.2435199680831D-02 -8.6496301039686D-02
   134  1.3300000000000D+00 -5.5346842363198D-02 -1.0240426722678D-01
   135  1.3400000000000D+00 -4.8750966317489D-02 -1.1485462161280D-01
   136  1.3500000000000D+00 -4.2655209492914D-02 -1.2400549654553D-01
   137  1.3600000000000D+00 -3.7061060324088D-02 -1.3004229166799D-01
   138  1.3700000000000D+00 -3.1964264122537D-02 -1.3317520762239D-01
   139  1.3800000000000D+00 -2.7355279450183D-02 -1.3363655836414D-01
   140  1.3900000000000D+00 -2.3219777615090D-02 -1.3167789479637D-01
   141  1.4000000000000D+00 -1.9539177069638D-02 -1.2756697862958D-01
   142  1.4100000000000D+00 -1.6291210290166D-02 -1.2158461312438D-01
   143  1.4200000000000D+00 -1.3450473953624D-02 -1.1402159140606D-01
   144  1.4300000000000D+00 -1.0988928439919D-02 -1.0517593702859D-01
   145  1.4400000000000D+00 -8.8771323253654D-03 -9.5346190050806D-02
   146  1.4500000000000D+00 -7.0841727832614D-03 -8.4831743716992D-02
   147  1.4600000000000D+00 -5.5743670967947D-03 -7.3950593077581D-02
   148  1.4700000000000D+00 -4.3169301918113D-03 -6.2987168001939D-02
   149  1.4800000000000D+00 -3.2902753436041D-03 -5.2169078722261D-02
   150  1.4900000000000D+00 -2.4603926226657D-03 -4.1783590393486D-02
   151  1.5000000000000D+00 -1.7839600603669D-03 -3.2160804275170D-02
   152  1.5100000000000D+00 -1.2342457356057D-03 -2.3533725860606D-02
   153  1.5200000000000D+00 -7.9571488424909D-04 -1.6075502020625D-02
   154  1.5300000000000D+00 -4.5209525293794D-04 -9.9151397602730D-03
   155  1.5400000000000D+00 -1.9386639846262D-04 -5.1881489807612D-03
   156  1.5500000000000D+00 -1.7702433304436D-05 -2.1252848334341D-03
   157  1.5600000000000D+00  7.3963605123935D-05 -6.1559664422355D-04
   158  1.5700000000000D+00  7.3728916132798D-05 -7.9670134208064D-05
   159  1.5800000000000D+00  1.9703504754341D-05  1.0289349327520D-05
   160  1.5900000000000D+00 -1.1058837115885D-05 -1.2135756970632D-05
   161  1.6000000000000D+00 -4.3917401268982D-06 -6.5853541320065D-06
   162  1.6100000000000D+00  2.4155303607377D-06  1.1761457754321D-06
   163  1.6200000000000D+00  7.6242489414845D-07  5.1183833564464D-07
   164  1.6300000000000D+00 -2.3993630921916D-07  7.4135717165832D-07
   165  1.6400000000000D+00 -5.7403985411580D-08  1.7736730386968D-07
   166  1.6500000000000D+00  0.0000000000000D+00  0.0000000000000D+00
   167  1.6600000000000D+00  0.0000000000000D+00  0.0000000000000D+00
   168  1.6700000000000D+00  0.0000000000000D+00  0.0000000000000D+00
   169  1.6800000000000D+00  0.0000000000000D+00  0.0000000000000D+00
   170  1.6900000000000D+00  0.0000000000000D+00  0.0000000000000D+00
   171  1.7000000000000D+00  0.0000000000000D+00  0.0000000000000D+00
   172  1.7100000000000D+00  0.0000000000000D+00  0.0000000000000D+00
   173  1.7200000000000D+00  0.0000000000000D+00  0.0000000000000D+00
   174  1.7300000000000D+00  0.0000000000000D+00  0.0000000000000D+00
   175  1.7400000000000D+00  0.0000000000000D+00  0.0000000000000D+00
   176  1.7500000000000D+00  0.0000000000000D+00  0.0000000000000D+00
   177  1.7600000000000D+00  0.0000000000000D+00  0.0000000000000D+00
   178  1.7700000000000D+00  0.0000000000000D+00  0.0000000000000D+00
   179  1.7800000000000D+00  0.0000000000000D+00  0.0000000000000D+00
   180  1.7900000000000D+00  0.0000000000000D+00  0.0000000000000D+00
   181  1.8000000000000D+00  0.0000000000000D+00  0.0000000000000D+00
   182  1.8100000000000D+00  0.0000000000000D+00  0.0000000000000D+00
   183  1.8200000000000D+00  0.0000000000000D+00  0.0000000000000D+00
   184  1.8300000000000D+00  0.0000000000000D+00  0.0000000000000D+00
   185  1.8400000000000D+00  0.0000000000000D+00  0.0000000000000D+00
   186  1.8500000000000D+00  0.0000000000000D+00  0.0000000000000D+00
   187  1.8600000000000D+00  0.0000000000000D+00  0.0000000000000D+00
   188  1.8700000000000D+00  0.0000000000000D+00  0.0000000000000D+00
   189  1.8800000000000D+00  0.0000000000000D+00  0.0000000000000D+00
   190  1.8900000000000D+00  0.0000000000000D+00  0.0000000000000D+00
   191  1.9000000000000D+00  0.0000000000000D+00  0.0000000000000D+00
   192  1.9100000000000D+00  0.0000000000000D+00  0.0000000000000D+00
   193  1.9200000000000D+00  0.0000000000000D+00  0.0000000000000D+00
   194  1.9300000000000D+00  0.0000000000000D+00  0.0000000000000D+00
   195  1.9400000000000D+00  0.0000000000000D+00  0.0000000000000D+00
   196  1.9500000000000D+00  0.0000000000000D+00  0.0000000000000D+00
   197  1.9600000000000D+00  0.0000000000000D+00  0.0000000000000D+00
   198  1.9700000000000D+00  0.0000000000000D+00  0.0000000000000D+00
   199  1.9800000000000D+00  0.0000000000000D+00  0.0000000000000D+00
   200  1.9900000000000D+00  0.0000000000000D+00  0.0000000000000D+00
   201  2.0000000000000D+00  0.0000000000000D+00  0.0000000000000D+00
   202  2.0100000000000D+00  0.0000000000000D+00  0.0000000000000D+00
   203  2.0200000000000D+00  0.0000000000000D+00  0.0000000000000D+00
   204  2.0300000000000D+00  0.0000000000000D+00  0.0000000000000D+00
   205  2.0400000000000D+00  0.0000000000000D+00  0.0000000000000D+00
   206  2.0500000000000D+00  0.0000000000000D+00  0.0000000000000D+00
   207  2.0600000000000D+00  0.0000000000000D+00  0.0000000000000D+00
   208  2.0700000000000D+00  0.0000000000000D+00  0.0000000000000D+00
   209  2.0800000000000D+00  0.0000000000000D+00  0.0000000000000D+00
   210  2.0900000000000D+00  0.0000000000000D+00  0.0000000000000D+00
   211  2.1000000000000D+00  0.0000000000000D+00  0.0000000000000D+00
   212  2.1100000000000D+00  0.0000000000000D+00  0.0000000000000D+00
   213  2.1200000000000D+00  0.0000000000000D+00  0.0000000000000D+00
   214  2.1300000000000D+00  0.0000000000000D+00  0.0000000000000D+00
   215  2.1400000000000D+00  0.0000000000000D+00  0.0000000000000D+00
   216  2.1500000000000D+00  0.0000000000000D+00  0.0000000000000D+00
   217  2.1600000000000D+00  0.0000000000000D+00  0.0000000000000D+00
   218  2.1700000000000D+00  0.0000000000000D+00  0.0000000000000D+00
   219  2.1800000000000D+00  0.0000000000000D+00  0.0000000000000D+00
   220  2.1900000000000D+00  0.0000000000000D+00  0.0000000000000D+00
   221  2.2000000000000D+00  0.0000000000000D+00  0.0000000000000D+00
   222  2.2100000000000D+00  0.0000000000000D+00  0.0000000000000D+00
   223  2.2200000000000D+00  0.0000000000000D+00  0.0000000000000D+00
   224  2.2300000000000D+00  0.0000000000000D+00  0.0000000000000D+00
   225  2.2400000000000D+00  0.0000000000000D+00  0.0000000000000D+00
   226  2.2500000000000D+00  0.0000000000000D+00  0.0000000000000D+00
   227  2.2600000000000D+00  0.0000000000000D+00  0.0000000000000D+00
   228  2.2700000000000D+00  0.0000000000000D+00  0.0000000000000D+00
   229  2.2800000000000D+00  0.0000000000000D+00  0.0000000000000D+00
   230  2.2900000000000D+00  0.0000000000000D+00  0.0000000000000D+00
   231  2.3000000000000D+00  0.0000000000000D+00  0.0000000000000D+00
   232  2.3100000000000D+00  0.0000000000000D+00  0.0000000000000D+00
   233  2.3200000000000D+00  0.0000000000000D+00  0.0000000000000D+00
   234  2.3300000000000D+00  0.0000000000000D+00  0.0000000000000D+00
   235  2.3400000000000D+00  0.0000000000000D+00  0.0000000000000D+00
   236  2.3500000000000D+00  0.0000000000000D+00  0.0000000000000D+00
   237  2.3600000000000D+00  0.0000000000000D+00  0.0000000000000D+00
   238  2.3700000000000D+00  0.0000000000000D+00  0.0000000000000D+00
   239  2.3800000000000D+00  0.0000000000000D+00  0.0000000000000D+00
   240  2.3900000000000D+00  0.0000000000000D+00  0.0000000000000D+00
   241  2.4000000000000D+00  0.0000000000000D+00  0.0000000000000D+00
   242  2.4100000000000D+00  0.0000000000000D+00  0.0000000000000D+00
   243  2.4200000000000D+00  0.0000000000000D+00  0.0000000000000D+00
   244  2.4300000000000D+00  0.0000000000000D+00  0.0000000000000D+00
   245  2.4400000000000D+00  0.0000000000000D+00  0.0000000000000D+00
   246  2.4500000000000D+00  0.0000000000000D+00  0.0000000000000D+00
   247  2.4600000000000D+00  0.0000000000000D+00  0.0000000000000D+00
   248  2.4700000000000D+00  0.0000000000000D+00  0.0000000000000D+00
   249  2.4800000000000D+00  0.0000000000000D+00  0.0000000000000D+00
   250  2.4900000000000D+00  0.0000000000000D+00  0.0000000000000D+00
   251  2.5000000000000D+00  0.0000000000000D+00  0.0000000000000D+00
   252  2.5100000000000D+00  0.0000000000000D+00  0.0000000000000D+00
   253  2.5200000000000D+00  0.0000000000000D+00  0.0000000000000D+00
   254  2.5300000000000D+00  0.0000000000000D+00  0.0000000000000D+00
   255  2.5400000000000D+00  0.0000000000000D+00  0.0000000000000D+00
   256  2.5500000000000D+00  0.0000000000000D+00  0.0000000000000D+00
   257  2.5600000000000D+00  0.0000000000000D+00  0.0000000000000D+00
   258  2.5700000000000D+00  0.0000000000000D+00  0.0000000000000D+00
   259  2.5800000000000D+00  0.0000000000000D+00  0.0000000000000D+00
   260  2.5900000000000D+00  0.0000000000000D+00  0.0000000000000D+00
   261  2.6000000000000D+00  0.0000000000000D+00  0.0000000000000D+00
   262  2.6100000000000D+00  0.0000000000000D+00  0.0000000000000D+00
   263  2.6200000000000D+00  0.0000000000000D+00  0.0000000000000D+00
   264  2.6300000000000D+00  0.0000000000000D+00  0.0000000000000D+00
   265  2.6400000000000D+00  0.0000000000000D+00  0.0000000000000D+00
   266  2.6500000000000D+00  0.0000000000000D+00  0.0000000000000D+00
   267  2.6600000000000D+00  0.0000000000000D+00  0.0000000000000D+00
   268  2.6700000000000D+00  0.0000000000000D+00  0.0000000000000D+00
   269  2.6800000000000D+00  0.0000000000000D+00  0.0000000000000D+00
   270  2.6900000000000D+00  0.0000000000000D+00  0.0000000000000D+00
   271  2.7000000000000D+00  0.0000000000000D+00  0.0000000000000D+00
   272  2.7100000000000D+00  0.0000000000000D+00  0.0000000000000D+00
   273  2.7200000000000D+00  0.0000000000000D+00  0.0000000000000D+00
   274  2.7300000000000D+00  0.0000000000000D+00  0.0000000000000D+00
   275  2.7400000000000D+00  0.0000000000000D+00  0.0000000000000D+00
   276  2.7500000000000D+00  0.0000000000000D+00  0.0000000000000D+00
   277  2.7600000000000D+00  0.0000000000000D+00  0.0000000000000D+00
   278  2.7700000000000D+00  0.0000000000000D+00  0.0000000000000D+00
   279  2.7800000000000D+00  0.0000000000000D+00  0.0000000000000D+00
   280  2.7900000000000D+00  0.0000000000000D+00  0.0000000000000D+00
   281  2.8000000000000D+00  0.0000000000000D+00  0.0000000000000D+00
   282  2.8100000000000D+00  0.0000000000000D+00  0.0000000000000D+00
   283  2.8200000000000D+00  0.0000000000000D+00  0.0000000000000D+00
   284  2.8300000000000D+00  0.0000000000000D+00  0.0000000000000D+00
   285  2.8400000000000D+00  0.0000000000000D+00  0.0000000000000D+00
   286  2.8500000000000D+00  0.0000000000000D+00  0.0000000000000D+00
   287  2.8600000000000D+00  0.0000000000000D+00  0.0000000000000D+00
   288  2.8700000000000D+00  0.0000000000000D+00  0.0000000000000D+00
   289  2.8800000000000D+00  0.0000000000000D+00  0.0000000000000D+00
   290  2.8900000000000D+00  0.0000000000000D+00  0.0000000000000D+00
   291  2.9000000000000D+00  0.0000000000000D+00  0.0000000000000D+00
   292  2.9100000000000D+00  0.0000000000000D+00  0.0000000000000D+00
   293  2.9200000000000D+00  0.0000000000000D+00  0.0000000000000D+00
   294  2.9300000000000D+00  0.0000000000000D+00  0.0000000000000D+00
   295  2.9400000000000D+00  0.0000000000000D+00  0.0000000000000D+00
   296  2.9500000000000D+00  0.0000000000000D+00  0.0000000000000D+00
   297  2.9600000000000D+00  0.0000000000000D+00  0.0000000000000D+00
   298  2.9700000000000D+00  0.0000000000000D+00  0.0000000000000D+00
   299  2.9800000000000D+00  0.0000000000000D+00  0.0000000000000D+00
   300  2.9900000000000D+00  0.0000000000000D+00  0.0000000000000D+00
   301  3.0000000000000D+00  0.0000000000000D+00  0.0000000000000D+00
   302  3.0100000000000D+00  0.0000000000000D+00  0.0000000000000D+00
   303  3.0200000000000D+00  0.0000000000000D+00  0.0000000000000D+00
   304  3.0300000000000D+00  0.0000000000000D+00  0.0000000000000D+00
   305  3.0400000000000D+00  0.0000000000000D+00  0.0000000000000D+00
   306  3.0500000000000D+00  0.0000000000000D+00  0.0000000000000D+00
   307  3.0600000000000D+00  0.0000000000000D+00  0.0000000000000D+00
   308  3.0700000000000D+00  0.0000000000000D+00  0.0000000000000D+00
   309  3.0800000000000D+00  0.0000000000000D+00  0.0000000000000D+00
   310  3.0900000000000D+00  0.0000000000000D+00  0.0000000000000D+00
   311  3.1000000000000D+00  0.0000000000000D+00  0.0000000000000D+00
   312  3.1100000000000D+00  0.0000000000000D+00  0.0000000000000D+00
   313  3.1200000000000D+00  0.0000000000000D+00  0.0000000000000D+00
   314  3.1300000000000D+00  0.0000000000000D+00  0.0000000000000D+00
   315  3.1400000000000D+00  0.0000000000000D+00  0.0000000000000D+00
   316  3.1500000000000D+00  0.0000000000000D+00  0.0000000000000D+00
   317  3.1600000000000D+00  0.0000000000000D+00  0.0000000000000D+00
   318  3.1700000000000D+00  0.0000000000000D+00  0.0000000000000D+00
   319  3.1800000000000D+00  0.0000000000000D+00  0.0000000000000D+00
   320  3.1900000000000D+00  0.0000000000000D+00  0.0000000000000D+00
   321  3.2000000000000D+00  0.0000000000000D+00  0.0000000000000D+00
   322  3.2100000000000D+00  0.0000000000000D+00  0.0000000000000D+00
   323  3.2200000000000D+00  0.0000000000000D+00  0.0000000000000D+00
   324  3.2300000000000D+00  0.0000000000000D+00  0.0000000000000D+00
   325  3.2400000000000D+00  0.0000000000000D+00  0.0000000000000D+00
   326  3.2500000000000D+00  0.0000000000000D+00  0.0000000000000D+00
   327  3.2600000000000D+00  0.0000000000000D+00  0.0000000000000D+00
   328  3.2700000000000D+00  0.0000000000000D+00  0.0000000000000D+00
   329  3.2800000000000D+00  0.0000000000000D+00  0.0000000000000D+00
   330  3.2900000000000D+00  0.0000000000000D+00  0.0000000000000D+00
   331  3.3000000000000D+00  0.0000000000000D+00  0.0000000000000D+00
   332  3.3100000000000D+00  0.0000000000000D+00  0.0000000000000D+00
   333  3.3200000000000D+00  0.0000000000000D+00  0.0000000000000D+00
   334  3.3300000000000D+00  0.0000000000000D+00  0.0000000000000D+00
   335  3.3400000000000D+00  0.0000000000000D+00  0.0000000000000D+00
   336  3.3500000000000D+00  0.0000000000000D+00  0.0000000000000D+00
   337  3.3600000000000D+00  0.0000000000000D+00  0.0000000000000D+00
   338  3.3700000000000D+00  0.0000000000000D+00  0.0000000000000D+00
   339  3.3800000000000D+00  0.0000000000000D+00  0.0000000000000D+00
   340  3.3900000000000D+00  0.0000000000000D+00  0.0000000000000D+00
   341  3.4000000000000D+00  0.0000000000000D+00  0.0000000000000D+00
   342  3.4100000000000D+00  0.0000000000000D+00  0.0000000000000D+00
   343  3.4200000000000D+00  0.0000000000000D+00  0.0000000000000D+00
   344  3.4300000000000D+00  0.0000000000000D+00  0.0000000000000D+00
   345  3.4400000000000D+00  0.0000000000000D+00  0.0000000000000D+00
   346  3.4500000000000D+00  0.0000000000000D+00  0.0000000000000D+00
   347  3.4600000000000D+00  0.0000000000000D+00  0.0000000000000D+00
   348  3.4700000000000D+00  0.0000000000000D+00  0.0000000000000D+00
   349  3.4800000000000D+00  0.0000000000000D+00  0.0000000000000D+00
   350  3.4900000000000D+00  0.0000000000000D+00  0.0000000000000D+00
   351  3.5000000000000D+00  0.0000000000000D+00  0.0000000000000D+00
   352  3.5100000000000D+00  0.0000000000000D+00  0.0000000000000D+00
   353  3.5200000000000D+00  0.0000000000000D+00  0.0000000000000D+00
   354  3.5300000000000D+00  0.0000000000000D+00  0.0000000000000D+00
   355  3.5400000000000D+00  0.0000000000000D+00  0.0000000000000D+00
   356  3.5500000000000D+00  0.0000000000000D+00  0.0000000000000D+00
   357  3.5600000000000D+00  0.0000000000000D+00  0.0000000000000D+00
   358  3.5700000000000D+00  0.0000000000000D+00  0.0000000000000D+00
   359  3.5800000000000D+00  0.0000000000000D+00  0.0000000000000D+00
   360  3.5900000000000D+00  0.0000000000000D+00  0.0000000000000D+00
   361  3.6000000000000D+00  0.0000000000000D+00  0.0000000000000D+00
   362  3.6100000000000D+00  0.0000000000000D+00  0.0000000000000D+00
   363  3.6200000000000D+00  0.0000000000000D+00  0.0000000000000D+00
   364  3.6300000000000D+00  0.0000000000000D+00  0.0000000000000D+00
   365  3.6400000000000D+00  0.0000000000000D+00  0.0000000000000D+00
   366  3.6500000000000D+00  0.0000000000000D+00  0.0000000000000D+00
   367  3.6600000000000D+00  0.0000000000000D+00  0.0000000000000D+00
   368  3.6700000000000D+00  0.0000000000000D+00  0.0000000000000D+00
   369  3.6800000000000D+00  0.0000000000000D+00  0.0000000000000D+00
   370  3.6900000000000D+00  0.0000000000000D+00  0.0000000000000D+00
   371  3.7000000000000D+00  0.0000000000000D+00  0.0000000000000D+00
   372  3.7100000000000D+00  0.0000000000000D+00  0.0000000000000D+00
   373  3.7200000000000D+00  0.0000000000000D+00  0.0000000000000D+00
   374  3.7300000000000D+00  0.0000000000000D+00  0.0000000000000D+00
   375  3.7400000000000D+00  0.0000000000000D+00  0.0000000000000D+00
   376  3.7500000000000D+00  0.0000000000000D+00  0.0000000000000D+00
   377  3.7600000000000D+00  0.0000000000000D+00  0.0000000000000D+00
   378  3.7700000000000D+00  0.0000000000000D+00  0.0000000000000D+00
   379  3.7800000000000D+00  0.0000000000000D+00  0.0000000000000D+00
   380  3.7900000000000D+00  0.0000000000000D+00  0.0000000000000D+00
   381  3.8000000000000D+00  0.0000000000000D+00  0.0000000000000D+00
   382  3.8100000000000D+00  0.0000000000000D+00  0.0000000000000D+00
   383  3.8200000000000D+00  0.0000000000000D+00  0.0000000000000D+00
   384  3.8300000000000D+00  0.0000000000000D+00  0.0000000000000D+00
   385  3.8400000000000D+00  0.0000000000000D+00  0.0000000000000D+00
   386  3.8500000000000D+00  0.0000000000000D+00  0.0000000000000D+00
   387  3.8600000000000D+00  0.0000000000000D+00  0.0000000000000D+00
   388  3.8700000000000D+00  0.0000000000000D+00  0.0000000000000D+00
   389  3.8800000000000D+00  0.0000000000000D+00  0.0000000000000D+00
   390  3.8900000000000D+00  0.0000000000000D+00  0.0000000000000D+00
   391  3.9000000000000D+00  0.0000000000000D+00  0.0000000000000D+00
   392  3.9100000000000D+00  0.0000000000000D+00  0.0000000000000D+00
   393  3.9200000000000D+00  0.0000000000000D+00  0.0000000000000D+00
   394  3.9300000000000D+00  0.0000000000000D+00  0.0000000000000D+00
   395  3.9400000000000D+00  0.0000000000000D+00  0.0000000000000D+00
   396  3.9500000000000D+00  0.0000000000000D+00  0.0000000000000D+00
   397  3.9600000000000D+00  0.0000000000000D+00  0.0000000000000D+00
   398  3.9700000000000D+00  0.0000000000000D+00  0.0000000000000D+00
   399  3.9800000000000D+00  0.0000000000000D+00  0.0000000000000D+00
   400  3.9900000000000D+00  0.0000000000000D+00  0.0000000000000D+00
   401  4.0000000000000D+00  0.0000000000000D+00  0.0000000000000D+00
   402  4.0100000000000D+00  0.0000000000000D+00  0.0000000000000D+00
   403  4.0200000000000D+00  0.0000000000000D+00  0.0000000000000D+00
   404  4.0300000000000D+00  0.0000000000000D+00  0.0000000000000D+00
   405  4.0400000000000D+00  0.0000000000000D+00  0.0000000000000D+00
   406  4.0500000000000D+00  0.0000000000000D+00  0.0000000000000D+00
   407  4.0600000000000D+00  0.0000000000000D+00  0.0000000000000D+00
   408  4.0700000000000D+00  0.0000000000000D+00  0.0000000000000D+00
   409  4.0800000000000D+00  0.0000000000000D+00  0.0000000000000D+00
   410  4.0900000000000D+00  0.0000000000000D+00  0.0000000000000D+00
   411  4.1000000000000D+00  0.0000000000000D+00  0.0000000000000D+00
   412  4.1100000000000D+00  0.0000000000000D+00  0.0000000000000D+00
   413  4.1200000000000D+00  0.0000000000000D+00  0.0000000000000D+00
   414  4.1300000000000D+00  0.0000000000000D+00  0.0000000000000D+00
   415  4.1400000000000D+00  0.0000000000000D+00  0.0000000000000D+00
   416  4.1500000000000D+00  0.0000000000000D+00  0.0000000000000D+00
   417  4.1600000000000D+00  0.0000000000000D+00  0.0000000000000D+00
   418  4.1700000000000D+00  0.0000000000000D+00  0.0000000000000D+00
   419  4.1800000000000D+00  0.0000000000000D+00  0.0000000000000D+00
   420  4.1900000000000D+00  0.0000000000000D+00  0.0000000000000D+00
   421  4.2000000000000D+00  0.0000000000000D+00  0.0000000000000D+00
   422  4.2100000000000D+00  0.0000000000000D+00  0.0000000000000D+00