Eu    ONCVPSP-3.3.0  r_core=   1.80418   1.50859   1.65965   1.72011
     63.0000     17.0000      220408    zatom,zion,pspd
     8       2   3     4   600     0    pspcod,pspxc,lmax,lloc,mmax,r2well
  5.99000000  0.00000000  0.00000000    rchrg fchrg qchrg
     2     2     2     2     0    nproj
     1     1           extension_switch
   0                         8.7453883275668D+00  5.8072654033693D-01
     1  0.0000000000000D+00 -4.7438719619208D-11  3.6100680778084D-10
     2  1.0000000000000D-02  4.1700364304485D-02 -1.9190316028926D-02
     3  2.0000000000000D-02  8.3359996602899D-02 -3.8263940842410D-02
     4  3.0000000000000D-02  1.2493826518164D-01 -5.7105189890140D-02
     5  4.0000000000000D-02  1.6639473786307D-01 -7.5600382078418D-02
     6  5.0000000000000D-02  2.0768927916329D-01 -9.3638816906478D-02
     7  6.0000000000000D-02  2.4878214435144D-01 -1.1111372234976D-01
     8  7.0000000000000D-02  2.8963406943402D-01 -1.2792316416571D-01
     9  8.0000000000000D-02  3.3020635613493D-01 -1.4397090765854D-01
    10  9.0000000000000D-02  3.7046095100040D-01 -1.5916722338507D-01
    11  1.0000000000000D-01  4.1036051782707D-01 -1.7342962880968D-01
    12  1.1000000000000D-01  4.4986850268967D-01 -1.8668355851907D-01
    13  1.2000000000000D-01  4.8894919093285D-01 -1.9886295628086D-01
    14  1.3000000000000D-01  5.2756775558709D-01 -2.0991078296879D-01
    15  1.4000000000000D-01  5.6569029677176D-01 -2.1977943517538D-01
    16  1.5000000000000D-01  6.0328387175741D-01 -2.2843107018227D-01
    17  1.6000000000000D-01  6.4031651547375D-01 -2.3583783385333D-01
    18  1.7000000000000D-01  6.7675725136737D-01 -2.4198198894651D-01
    19  1.8000000000000D-01  7.1257609263477D-01 -2.4685594230087D-01
    20  1.9000000000000D-01  7.4774403397769D-01 -2.5046217033441D-01
    21  2.0000000000000D-01  7.8223303415084D-01 -2.5281304328054D-01
    22  2.1000000000000D-01  8.1601598969277D-01 -2.5393054958384D-01
    23  2.2000000000000D-01  8.4906670034989D-01 -2.5384592286327D-01
    24  2.3000000000000D-01  8.8135982681822D-01 -2.5259917482168D-01
    25  2.4000000000000D-01  9.1287084153770D-01 -2.5023853842691D-01
    26  2.5000000000000D-01  9.4357597337722D-01 -2.4681982660180D-01
    27  2.6000000000000D-01  9.7345214714468D-01 -2.4240571253052D-01
    28  2.7000000000000D-01  1.0024769189433D+00 -2.3706493850648D-01
    29  2.8000000000000D-01  1.0306284084729D+00 -2.3087146100692D-01
    30  2.9000000000000D-01  1.0578852294417D+00 -2.2390354037140D-01
    31  3.0000000000000D-01  1.0842264193062D+00 -2.1624278407842D-01
    32  3.1000000000000D-01  1.1096313696029D+00 -2.0797315315287D-01
    33  3.2000000000000D-01  1.1340797581583D+00 -1.9917994168543D-01
    34  3.3000000000000D-01  1.1575514844809D+00 -1.8994873980352D-01
    35  3.4000000000000D-01  1.1800266096384D+00 -1.8036439069378D-01
    36  3.5000000000000D-01  1.2014853019037D+00 -1.7050995243606D-01
    37  3.6000000000000D-01  1.2219077894267D+00 -1.6046567546536D-01
    38  3.7000000000000D-01  1.2412743211388D+00 -1.5030800642924D-01
    39  3.8000000000000D-01  1.2595651370366D+00 -1.4010862905224D-01
    40  3.9000000000000D-01  1.2767604489136D+00 -1.2993355235728D-01
    41  4.0000000000000D-01  1.2928404325169D+00 -1.1984225622583D-01
    42  4.1000000000000D-01  1.3077852320010D+00 -1.0988690380783D-01
    43  4.2000000000000D-01  1.3215749774293D+00 -1.0011162972036D-01
    44  4.3000000000000D-01  1.3341898159437D+00 -9.0551912306032D-02
    45  4.4000000000000D-01  1.3456099570791D+00 -8.1234037462996D-02
    46  4.5000000000000D-01  1.3558157325453D+00 -7.2174660713064D-02
    47  4.6000000000000D-01  1.3647876706355D+00 -6.3380473252420D-02
    48  4.7000000000000D-01  1.3725065852528D+00 -5.4847976735782D-02
    49  4.8000000000000D-01  1.3789536793669D+00 -4.6563370490374D-02
    50  4.9000000000000D-01  1.3841106625359D+00 -3.8502553750133D-02
    51  5.0000000000000D-01  1.3879598819438D+00 -3.0631244352155D-02
    52  5.1000000000000D-01  1.3904844662211D+00 -2.2905214159527D-02
    53  5.2000000000000D-01  1.3916684811375D+00 -1.5270640277354D-02
    54  5.3000000000000D-01  1.3914970960734D+00 -7.6645699238594D-03
    55  5.4000000000000D-01  1.3899567600087D+00 -1.5495620298834D-05
    56  5.5000000000000D-01  1.3870353856029D+00  7.7559638184758D-03
    57  5.6000000000000D-01  1.3827225397816D+00  1.5736282162421D-02
    58  5.7000000000000D-01  1.3770096391097D+00  2.4018151289165D-02
    59  5.8000000000000D-01  1.3698901480946D+00  3.2699521182729D-02
    60  5.9000000000000D-01  1.3613597784563D+00  4.1882563220724D-02
    61  6.0000000000000D-01  1.3514166873020D+00  5.1672566472372D-02
    62  6.1000000000000D-01  1.3400616720685D+00  6.2176777542861D-02
    63  6.2000000000000D-01  1.3272983600386D+00  7.3503195215835D-02
    64  6.3000000000000D-01  1.3131333902068D+00  8.5759331751761D-02
    65  6.4000000000000D-01  1.2975765852559D+00  9.9050953184957D-02
    66  6.5000000000000D-01  1.2806411114241D+00  1.1348081132436D-01
    67  6.6000000000000D-01  1.2623436240768D+00  1.2914738039079D-01
    68  6.7000000000000D-01  1.2427043968655D+00  1.4614361131558D-01
    69  6.8000000000000D-01  1.2217474324415D+00  1.6455571667569D-01
    70  6.9000000000000D-01  1.1995005528115D+00  1.8446199905014D-01
    71  7.0000000000000D-01  1.1759954675577D+00  2.0593173524808D-01
    72  7.1000000000000D-01  1.1512678183119D+00  2.2902412838367D-01
    73  7.2000000000000D-01  1.1253571980593D+00  2.5378733915850D-01
    74  7.3000000000000D-01  1.0983071440573D+00  2.8025760696567D-01
    75  7.4000000000000D-01  1.0701651033842D+00  3.0845847055196D-01
    76  7.5000000000000D-01  1.0409823703787D+00  3.3840009698525D-01
    77  7.6000000000000D-01  1.0108139954992D+00  3.7007872656323D-01
    78  7.7000000000000D-01  9.7971866540535D-01  4.0347624010111D-01
    79  7.8000000000000D-01  9.4775855435631D-01  4.3855985374548D-01
    80  7.9000000000000D-01  9.1499914731483D-01  4.7528194510067D-01
    81  8.0000000000000D-01  8.8150903544945D-01  5.1358001303723D-01
    82  8.1000000000000D-01  8.4735968502901D-01  5.5337677209444D-01
    83  8.2000000000000D-01  8.1262518100538D-01  5.9458038090918D-01
    84  8.3000000000000D-01  7.7738194687529D-01  6.3708480261897D-01
    85  8.4000000000000D-01  7.4170844269810D-01  6.8077029371707D-01
    86  8.5000000000000D-01  7.0568484341910D-01  7.2550401640047D-01
    87  8.6000000000000D-01  6.6939269990352D-01  7.7114076806838D-01
    88  8.7000000000000D-01  6.3291458532200D-01  8.1752382031498D-01
    89  8.8000000000000D-01  5.9633372973874D-01  8.6448585853968D-01
    90  8.9000000000000D-01  5.5973364593718D-01  9.1185001218322D-01
    91  9.0000000000000D-01  5.2319774967045D-01  9.5943096461101D-01
    92  9.1000000000000D-01  4.8680897764195D-01  1.0070361308188D+00
    93  9.2000000000000D-01  4.5064940660355D-01  1.0544668904465D+00
    94  9.3000000000000D-01  4.1479987700132D-01  1.1015198630658D+00
    95  9.4000000000000D-01  3.7933962460051D-01  1.1479882123693D+00
    96  9.5000000000000D-01  3.4434592348032D-01  1.1936629657381D+00
    97  9.6000000000000D-01  3.0989374370426D-01  1.2383343357150D+00
    98  9.7000000000000D-01  2.7605542684273D-01  1.2817930301572D+00
    99  9.8000000000000D-01  2.4290038235083D-01  1.3238315382931D+00
   100  9.9000000000000D-01  2.1049480758287D-01  1.3642453805764D+00
   101  1.0000000000000D+00  1.7890143397487D-01  1.4028343110418D+00
   102  1.0100000000000D+00  1.4817930160994D-01  1.4394034619562D+00
   103  1.0200000000000D+00  1.1838356404995D-01  1.4737644217482D+00
   104  1.0300000000000D+00  8.9565324935732D-02  1.5057362385966D+00
   105  1.0400000000000D+00  6.1771507451331D-02  1.5351463435838D+00
   106  1.0500000000000D+00  3.5044757287532D-02  1.5618313890670D+00
   107  1.0600000000000D+00  9.4233793278634D-03  1.5856379995046D+00
   108  1.0700000000000D+00 -1.5058692265178D-02  1.6064234340731D+00
   109  1.0800000000000D+00 -3.8371891337987D-02  1.6240561621657D+00
   110  1.0900000000000D+00 -6.0490985696095D-02  1.6384163548435D+00
   111  1.1000000000000D+00 -8.1395013530353D-02  1.6493962973320D+00
   112  1.1100000000000D+00 -1.0106719254927D-01  1.6569007292456D+00
   113  1.1200000000000D+00 -1.1949480463418D-01  1.6608471214327D+00
   114  1.1300000000000D+00 -1.3666905920545D-01  1.6611658997000D+00
   115  1.1400000000000D+00 -1.5258493896950D-01  1.6578006273776D+00
   116  1.1500000000000D+00 -1.6724103201279D-01  1.6507081597276D+00
   117  1.1600000000000D+00 -1.8063935465331D-01  1.6398587846235D+00
   118  1.1700000000000D+00 -1.9278516966214D-01  1.6252363644513D+00
   119  1.1800000000000D+00 -2.0368680467821D-01  1.6068384945303D+00
   120  1.1900000000000D+00 -2.1335547577985D-01  1.5846766936578D+00
   121  1.2000000000000D+00 -2.2180512124857D-01  1.5587766418606D+00
   122  1.2100000000000D+00 -2.2905225041716D-01  1.5291784792603D+00
   123  1.2200000000000D+00 -2.3511581241064D-01  1.4959371790456D+00
   124  1.2300000000000D+00 -2.4001708934125D-01  1.4591230056032D+00
   125  1.2400000000000D+00 -2.4377961796303D-01  1.4188220654765D+00
   126  1.2500000000000D+00 -2.4642914330459D-01  1.3751369559551D+00
   127  1.2600000000000D+00 -2.4799360742070D-01  1.3281875137116D+00
   128  1.2700000000000D+00 -2.4850317499091D-01  1.2781116580435D+00
   129  1.2800000000000D+00 -2.4799029669901D-01  1.2250663190450D+00
   130  1.2900000000000D+00 -2.4648981088226D-01  1.1692284384030D+00
   131  1.3000000000000D+00 -2.4403908113949D-01  1.1107960156395D+00
   132  1.3100000000000D+00 -2.4067816692234D-01  1.0499891692297D+00
   133  1.3200000000000D+00 -2.3645002324656D-01  9.8705117715228D-01
   134  1.3300000000000D+00 -2.3140072101809D-01  9.2224943738589D-01
   135  1.3400000000000D+00 -2.2557968003376D-01  8.5587629184076D-01
   136  1.3500000000000D+00 -2.1903990384098D-01  7.8824964220236D-01
   137  1.3600000000000D+00 -2.1183819930193D-01  7.1971325381452D-01
   138  1.3700000000000D+00 -2.0403536771517D-01  6.5063666415655D-01
   139  1.3800000000000D+00 -1.9569634453944D-01  5.8141456230499D-01
   140  1.3900000000000D+00 -1.8689026226588D-01  5.1246549319056D-01
   141  1.4000000000000D+00 -1.7769041457523D-01  4.4422975860172D-01
   142  1.4100000000000D+00 -1.6817408152005D-01  3.7716629336757D-01
   143  1.4200000000000D+00 -1.5842218624642D-01  3.1174834992809D-01
   144  1.4300000000000D+00 -1.4851873998539D-01  2.4845775444403D-01
   145  1.4400000000000D+00 -1.3855002279698D-01  1.8777745053929D-01
   146  1.4500000000000D+00 -1.2860346174462D-01  1.3018211904122D-01
   147  1.4600000000000D+00 -1.1876611450947D-01  7.6126350396038D-02
   148  1.4700000000000D+00 -1.0912280315627D-01  2.6030816898086D-02
   149  1.4800000000000D+00 -9.9753423519723D-02 -1.9736937607004D-02
   150  1.4900000000000D+00 -9.0730760195737D-02 -6.0877112350056D-02
   151  1.5000000000000D+00 -8.2115904322367D-02 -9.7188489662182D-02
   152  1.5100000000000D+00 -7.3951943475306D-02 -1.2861257143438D-01
   153  1.5200000000000D+00 -6.6266001851234D-02 -1.5520976492318D-01
   154  1.5300000000000D+00 -5.9070890561552D-02 -1.7713906223730D-01
   155  1.5400000000000D+00 -5.2371865743104D-02 -1.9460442865910D-01
   156  1.5500000000000D+00 -4.6171627236907D-02 -2.0781489133241D-01
   157  1.5600000000000D+00 -4.0465748040357D-02 -2.1701911719462D-01
   158  1.5700000000000D+00 -3.5243716013563D-02 -2.2249834074092D-01
   159  1.5800000000000D+00 -3.0501794218641D-02 -2.2447433047910D-01
   160  1.5900000000000D+00 -2.6237326613121D-02 -2.2315056863728D-01
   161  1.6000000000000D+00 -2.2425069765797D-02 -2.1888231427082D-01
   162  1.6100000000000D+00 -1.9028788027959D-02 -2.1209331364532D-01
   163  1.6200000000000D+00 -1.6024943928094D-02 -2.0310517023646D-01
   164  1.6300000000000D+00 -1.3393006273937D-02 -1.9220792598643D-01
   165  1.6400000000000D+00 -1.1105149942277D-02 -1.7973528671093D-01
   166  1.6500000000000D+00 -9.1319231578106D-03 -1.6602404046400D-01
   167  1.6600000000000D+00 -7.4445597321004D-03 -1.5139777580511D-01
   168  1.6700000000000D+00 -6.0140307438010D-03 -1.3617428811383D-01
   169  1.6800000000000D+00 -4.8115685217886D-03 -1.2066228534577D-01
   170  1.6900000000000D+00 -3.8092231306334D-03 -1.0515786476316D-01
   171  1.7000000000000D+00 -2.9802620085026D-03 -8.9942112855211D-02
   172  1.7100000000000D+00 -2.2995706723072D-03 -7.5278678706498D-02
   173  1.7200000000000D+00 -1.7440307252667D-03 -6.1411492004159D-02
   174  1.7300000000000D+00 -1.2928674497663D-03 -4.8562669915475D-02
   175  1.7400000000000D+00 -9.2796902193365D-04 -3.6930600913401D-02
   176  1.7500000000000D+00 -6.3433755653353D-04 -2.6697363279551D-02
   177  1.7600000000000D+00 -3.9954418229992D-04 -1.7984478567246D-02
   178  1.7700000000000D+00 -2.1501911975344D-04 -1.0873816810401D-02
   179  1.7800000000000D+00 -7.6562511332729D-05 -5.5877145019705D-03
   180  1.7900000000000D+00  1.8479221060704D-05 -2.2736348762170D-03
   181  1.8000000000000D+00  6.5213736149537D-05 -6.1143097359022D-04
   182  1.8100000000000D+00  5.8713389872409D-05 -1.2715348627468D-05
   183  1.8200000000000D+00  2.1175239875378D-05  5.1767000483188D-05
   184  1.8300000000000D+00 -6.5558349316976D-06 -2.2649536591555D-05
   185  1.8400000000000D+00 -7.4696705822743D-06 -3.1561136303068D-05
   186  1.8500000000000D+00  7.6221964765087D-07  1.8138826077570D-06
   187  1.8600000000000D+00  1.9212692397894D-06  5.2535774308404D-06
   188  1.8700000000000D+00 -3.0038362982340D-09  1.1714772156697D-08
   189  1.8800000000000D+00 -1.9749535051380D-07  7.7021941396615D-07
   190  1.8900000000000D+00 -6.0242793436194D-08  2.3494309580148D-07
   191  1.9000000000000D+00  0.0000000000000D+00  0.0000000000000D+00
   192  1.9100000000000D+00  0.0000000000000D+00  0.0000000000000D+00
   193  1.9200000000000D+00  0.0000000000000D+00  0.0000000000000D+00
   194  1.9300000000000D+00  0.0000000000000D+00  0.0000000000000D+00
   195  1.9400000000000D+00  0.0000000000000D+00  0.0000000000000D+00
   196  1.9500000000000D+00  0.0000000000000D+00  0.0000000000000D+00
   197  1.9600000000000D+00  0.0000000000000D+00  0.0000000000000D+00
   198  1.9700000000000D+00  0.0000000000000D+00  0.0000000000000D+00
   199  1.9800000000000D+00  0.0000000000000D+00  0.0000000000000D+00
   200  1.9900000000000D+00  0.0000000000000D+00  0.0000000000000D+00
   201  2.0000000000000D+00  0.0000000000000D+00  0.0000000000000D+00
   202  2.0100000000000D+00  0.0000000000000D+00  0.0000000000000D+00
   203  2.0200000000000D+00  0.0000000000000D+00  0.0000000000000D+00
   204  2.0300000000000D+00  0.0000000000000D+00  0.0000000000000D+00
   205  2.0400000000000D+00  0.0000000000000D+00  0.0000000000000D+00
   206  2.0500000000000D+00  0.0000000000000D+00  0.0000000000000D+00
   207  2.0600000000000D+00  0.0000000000000D+00  0.0000000000000D+00
   208  2.0700000000000D+00  0.0000000000000D+00  0.0000000000000D+00
   209  2.0800000000000D+00  0.0000000000000D+00  0.0000000000000D+00
   210  2.0900000000000D+00  0.0000000000000D+00  0.0000000000000D+00
   211  2.1000000000000D+00  0.0000000000000D+00  0.0000000000000D+00
   212  2.1100000000000D+00  0.0000000000000D+00  0.0000000000000D+00
   213  2.1200000000000D+00  0.0000000000000D+00  0.0000000000000D+00
   214  2.1300000000000D+00  0.0000000000000D+00  0.0000000000000D+00
   215  2.1400000000000D+00  0.0000000000000D+00  0.0000000000000D+00
   216  2.1500000000000D+00  0.0000000000000D+00  0.0000000000000D+00
   217  2.1600000000000D+00  0.0000000000000D+00  0.0000000000000D+00
   218  2.1700000000000D+00  0.0000000000000D+00  0.0000000000000D+00
   219  2.1800000000000D+00  0.0000000000000D+00  0.0000000000000D+00
   220  2.1900000000000D+00  0.0000000000000D+00  0.0000000000000D+00
   221  2.2000000000000D+00  0.0000000000000D+00  0.0000000000000D+00
   222  2.2100000000000D+00  0.0000000000000D+00  0.0000000000000D+00
   223  2.2200000000000D+00  0.0000000000000D+00  0.0000000000000D+00
   224  2.2300000000000D+00  0.0000000000000D+00  0.0000000000000D+00
   225  2.2400000000000D+00  0.0000000000000D+00  0.0000000000000D+00
   226  2.2500000000000D+00  0.0000000000000D+00  0.0000000000000D+00
   227  2.2600000000000D+00  0.0000000000000D+00  0.0000000000000D+00
   228  2.2700000000000D+00  0.0000000000000D+00  0.0000000000000D+00
   229  2.2800000000000D+00  0.0000000000000D+00  0.0000000000000D+00
   230  2.2900000000000D+00  0.0000000000000D+00  0.0000000000000D+00
   231  2.3000000000000D+00  0.0000000000000D+00  0.0000000000000D+00
   232  2.3100000000000D+00  0.0000000000000D+00  0.0000000000000D+00
   233  2.3200000000000D+00  0.0000000000000D+00  0.0000000000000D+00
   234  2.3300000000000D+00  0.0000000000000D+00  0.0000000000000D+00
   235  2.3400000000000D+00  0.0000000000000D+00  0.0000000000000D+00
   236  2.3500000000000D+00  0.0000000000000D+00  0.0000000000000D+00
   237  2.3600000000000D+00  0.0000000000000D+00  0.0000000000000D+00
   238  2.3700000000000D+00  0.0000000000000D+00  0.0000000000000D+00
   239  2.3800000000000D+00  0.0000000000000D+00  0.0000000000000D+00
   240  2.3900000000000D+00  0.0000000000000D+00  0.0000000000000D+00
   241  2.4000000000000D+00  0.0000000000000D+00  0.0000000000000D+00
   242  2.4100000000000D+00  0.0000000000000D+00  0.0000000000000D+00
   243  2.4200000000000D+00  0.0000000000000D+00  0.0000000000000D+00
   244  2.4300000000000D+00  0.0000000000000D+00  0.0000000000000D+00
   245  2.4400000000000D+00  0.0000000000000D+00  0.0000000000000D+00
   246  2.4500000000000D+00  0.0000000000000D+00  0.0000000000000D+00
   247  2.4600000000000D+00  0.0000000000000D+00  0.0000000000000D+00
   248  2.4700000000000D+00  0.0000000000000D+00  0.0000000000000D+00
   249  2.4800000000000D+00  0.0000000000000D+00  0.0000000000000D+00
   250  2.4900000000000D+00  0.0000000000000D+00  0.0000000000000D+00
   251  2.5000000000000D+00  0.0000000000000D+00  0.0000000000000D+00
   252  2.5100000000000D+00  0.0000000000000D+00  0.0000000000000D+00
   253  2.5200000000000D+00  0.0000000000000D+00  0.0000000000000D+00
   254  2.5300000000000D+00  0.0000000000000D+00  0.0000000000000D+00
   255  2.5400000000000D+00  0.0000000000000D+00  0.0000000000000D+00
   256  2.5500000000000D+00  0.0000000000000D+00  0.0000000000000D+00
   257  2.5600000000000D+00  0.0000000000000D+00  0.0000000000000D+00
   258  2.5700000000000D+00  0.0000000000000D+00  0.0000000000000D+00
   259  2.5800000000000D+00  0.0000000000000D+00  0.0000000000000D+00
   260  2.5900000000000D+00  0.0000000000000D+00  0.0000000000000D+00
   261  2.6000000000000D+00  0.0000000000000D+00  0.0000000000000D+00
   262  2.6100000000000D+00  0.0000000000000D+00  0.0000000000000D+00
   263  2.6200000000000D+00  0.0000000000000D+00  0.0000000000000D+00
   264  2.6300000000000D+00  0.0000000000000D+00  0.0000000000000D+00
   265  2.6400000000000D+00  0.0000000000000D+00  0.0000000000000D+00
   266  2.6500000000000D+00  0.0000000000000D+00  0.0000000000000D+00
   267  2.6600000000000D+00  0.0000000000000D+00  0.0000000000000D+00
   268  2.6700000000000D+00  0.0000000000000D+00  0.0000000000000D+00
   269  2.6800000000000D+00  0.0000000000000D+00  0.0000000000000D+00
   270  2.6900000000000D+00  0.0000000000000D+00  0.0000000000000D+00
   271  2.7000000000000D+00  0.0000000000000D+00  0.0000000000000D+00
   272  2.7100000000000D+00  0.0000000000000D+00  0.0000000000000D+00
   273  2.7200000000000D+00  0.0000000000000D+00  0.0000000000000D+00
   274  2.7300000000000D+00  0.0000000000000D+00  0.0000000000000D+00
   275  2.7400000000000D+00  0.0000000000000D+00  0.0000000000000D+00
   276  2.7500000000000D+00  0.0000000000000D+00  0.0000000000000D+00
   277  2.7600000000000D+00  0.0000000000000D+00  0.0000000000000D+00
   278  2.7700000000000D+00  0.0000000000000D+00  0.0000000000000D+00
   279  2.7800000000000D+00  0.0000000000000D+00  0.0000000000000D+00
   280  2.7900000000000D+00  0.0000000000000D+00  0.0000000000000D+00
   281  2.8000000000000D+00  0.0000000000000D+00  0.0000000000000D+00
   282  2.8100000000000D+00  0.0000000000000D+00  0.0000000000000D+00
   283  2.8200000000000D+00  0.0000000000000D+00  0.0000000000000D+00
   284  2.8300000000000D+00  0.0000000000000D+00  0.0000000000000D+00
   285  2.8400000000000D+00  0.0000000000000D+00  0.0000000000000D+00
   286  2.8500000000000D+00  0.0000000000000D+00  0.0000000000000D+00
   287  2.8600000000000D+00  0.0000000000000D+00  0.0000000000000D+00
   288  2.8700000000000D+00  0.0000000000000D+00  0.0000000000000D+00
   289  2.8800000000000D+00  0.0000000000000D+00  0.0000000000000D+00
   290  2.8900000000000D+00  0.0000000000000D+00  0.0000000000000D+00
   291  2.9000000000000D+00  0.0000000000000D+00  0.0000000000000D+00
   292  2.9100000000000D+00  0.0000000000000D+00  0.0000000000000D+00
   293  2.9200000000000D+00  0.0000000000000D+00  0.0000000000000D+00
   294  2.9300000000000D+00  0.0000000000000D+00  0.0000000000000D+00
   295  2.9400000000000D+00  0.0000000000000D+00  0.0000000000000D+00
   296  2.9500000000000D+00  0.0000000000000D+00  0.0000000000000D+00
   297  2.9600000000000D+00  0.0000000000000D+00  0.0000000000000D+00
   298  2.9700000000000D+00  0.0000000000000D+00  0.0000000000000D+00
   299  2.9800000000000D+00  0.0000000000000D+00  0.0000000000000D+00
   300  2.9900000000000D+00  0.0000000000000D+00  0.0000000000000D+00
   301  3.0000000000000D+00  0.0000000000000D+00  0.0000000000000D+00
   302  3.0100000000000D+00  0.0000000000000D+00  0.0000000000000D+00
   303  3.0200000000000D+00  0.0000000000000D+00  0.0000000000000D+00
   304  3.0300000000000D+00  0.0000000000000D+00  0.0000000000000D+00
   305  3.0400000000000D+00  0.0000000000000D+00  0.0000000000000D+00
   306  3.0500000000000D+00  0.0000000000000D+00  0.0000000000000D+00
   307  3.0600000000000D+00  0.0000000000000D+00  0.0000000000000D+00
   308  3.0700000000000D+00  0.0000000000000D+00  0.0000000000000D+00
   309  3.0800000000000D+00  0.0000000000000D+00  0.0000000000000D+00
   310  3.0900000000000D+00  0.0000000000000D+00  0.0000000000000D+00
   311  3.1000000000000D+00  0.0000000000000D+00  0.0000000000000D+00
   312  3.1100000000000D+00  0.0000000000000D+00  0.0000000000000D+00
   313  3.1200000000000D+00  0.0000000000000D+00  0.0000000000000D+00
   314  3.1300000000000D+00  0.0000000000000D+00  0.0000000000000D+00
   315  3.1400000000000D+00  0.0000000000000D+00  0.0000000000000D+00
   316  3.1500000000000D+00  0.0000000000000D+00  0.0000000000000D+00
   317  3.1600000000000D+00  0.0000000000000D+00  0.0000000000000D+00
   318  3.1700000000000D+00  0.0000000000000D+00  0.0000000000000D+00
   319  3.1800000000000D+00  0.0000000000000D+00  0.0000000000000D+00
   320  3.1900000000000D+00  0.0000000000000D+00  0.0000000000000D+00
   321  3.2000000000000D+00  0.0000000000000D+00  0.0000000000000D+00
   322  3.2100000000000D+00  0.0000000000000D+00  0.0000000000000D+00
   323  3.2200000000000D+00  0.0000000000000D+00  0.0000000000000D+00
   324  3.2300000000000D+00  0.0000000000000D+00  0.0000000000000D+00
   325  3.2400000000000D+00  0.0000000000000D+00  0.0000000000000D+00
   326  3.2500000000000D+00  0.0000000000000D+00  0.0000000000000D+00
   327  3.2600000000000D+00  0.0000000000000D+00  0.0000000000000D+00
   328  3.2700000000000D+00  0.0000000000000D+00  0.0000000000000D+00
   329  3.2800000000000D+00  0.0000000000000D+00  0.0000000000000D+00
   330  3.2900000000000D+00  0.0000000000000D+00  0.0000000000000D+00
   331  3.3000000000000D+00  0.0000000000000D+00  0.0000000000000D+00
   332  3.3100000000000D+00  0.0000000000000D+00  0.0000000000000D+00
   333  3.3200000000000D+00  0.0000000000000D+00  0.0000000000000D+00
   334  3.3300000000000D+00  0.0000000000000D+00  0.0000000000000D+00
   335  3.3400000000000D+00  0.0000000000000D+00  0.0000000000000D+00
   336  3.3500000000000D+00  0.0000000000000D+00  0.0000000000000D+00
   337  3.3600000000000D+00  0.0000000000000D+00  0.0000000000000D+00
   338  3.3700000000000D+00  0.0000000000000D+00  0.0000000000000D+00
   339  3.3800000000000D+00  0.0000000000000D+00  0.0000000000000D+00
   340  3.3900000000000D+00  0.0000000000000D+00  0.0000000000000D+00
   341  3.4000000000000D+00  0.0000000000000D+00  0.0000000000000D+00
   342  3.4100000000000D+00  0.0000000000000D+00  0.0000000000000D+00
   343  3.4200000000000D+00  0.0000000000000D+00  0.0000000000000D+00
   344  3.4300000000000D+00  0.0000000000000D+00  0.0000000000000D+00
   345  3.4400000000000D+00  0.0000000000000D+00  0.0000000000000D+00
   346  3.4500000000000D+00  0.0000000000000D+00  0.0000000000000D+00
   347  3.4600000000000D+00  0.0000000000000D+00  0.0000000000000D+00
   348  3.4700000000000D+00  0.0000000000000D+00  0.0000000000000D+00
   349  3.4800000000000D+00  0.0000000000000D+00  0.0000000000000D+00
   350  3.4900000000000D+00  0.0000000000000D+00  0.0000000000000D+00
   351  3.5000000000000D+00  0.0000000000000D+00  0.0000000000000D+00
   352  3.5100000000000D+00  0.0000000000000D+00  0.0000000000000D+00
   353  3.5200000000000D+00  0.0000000000000D+00  0.0000000000000D+00
   354  3.5300000000000D+00  0.0000000000000D+00  0.0000000000000D+00
   355  3.5400000000000D+00  0.0000000000000D+00  0.0000000000000D+00
   356  3.5500000000000D+00  0.0000000000000D+00  0.0000000000000D+00
   357  3.5600000000000D+00  0.0000000000000D+00  0.0000000000000D+00
   358  3.5700000000000D+00  0.0000000000000D+00  0.0000000000000D+00
   359  3.5800000000000D+00  0.0000000000000D+00  0.0000000000000D+00
   360  3.5900000000000D+00  0.0000000000000D+00  0.0000000000000D+00
   361  3.6000000000000D+00  0.0000000000000D+00  0.0000000000000D+00
   362  3.6100000000000D+00  0.0000000000000D+00  0.0000000000000D+00
   363  3.6200000000000D+00  0.0000000000000D+00  0.0000000000000D+00
   364  3.6300000000000D+00  0.0000000000000D+00  0.0000000000000D+00
   365  3.6400000000000D+00  0.0000000000000D+00  0.0000000000000D+00
   366  3.6500000000000D+00  0.0000000000000D+00  0.0000000000000D+00
   367  3.6600000000000D+00  0.0000000000000D+00  0.0000000000000D+00
   368  3.6700000000000D+00  0.0000000000000D+00  0.0000000000000D+00
   369  3.6800000000000D+00  0.0000000000000D+00  0.0000000000000D+00
   370  3.6900000000000D+00  0.0000000000000D+00  0.0000000000000D+00
   371  3.7000000000000D+00  0.0000000000000D+00  0.0000000000000D+00
   372  3.7100000000000D+00  0.0000000000000D+00  0.0000000000000D+00
   373  3.7200000000000D+00  0.0000000000000D+00  0.0000000000000D+00
   374  3.7300000000000D+00  0.0000000000000D+00  0.0000000000000D+00
   375  3.7400000000000D+00  0.0000000000000D+00  0.0000000000000D+00
   376  3.7500000000000D+00  0.0000000000000D+00  0.0000000000000D+00
   377  3.7600000000000D+00  0.0000000000000D+00  0.0000000000000D+00
   378  3.7700000000000D+00  0.0000000000000D+00  0.0000000000000D+00
   379  3.7800000000000D+00  0.0000000000000D+00  0.0000000000000D+00
   380  3.7900000000000D+00  0.0000000000000D+00  0.0000000000000D+00
   381  3.8000000000000D+00  0.0000000000000D+00  0.0000000000000D+00
   382  3.8100000000000D+00  0.0000000000000D+00  0.0000000000000D+00
   383  3.8200000000000D+00  0.0000000000000D+00  0.0000000000000D+00
   384  3.8300000000000D+00  0.0000000000000D+00  0.0000000000000D+00
   385  3.8400000000000D+00  0.0000000000000D+00  0.0000000000000D+00
   386  3.8500000000000D+00  0.0000000000000D+00  0.0000000000000D+00
   387  3.8600000000000D+00  0.0000000000000D+00  0.0000000000000D+00
   388  3.8700000000000D+00  0.0000000000000D+00  0.0000000000000D+00
   389  3.8800000000000D+00  0.0000000000000D+00  0.0000000000000D+00
   390  3.8900000000000D+00  0.0000000000000D+00  0.0000000000000D+00
   391  3.9000000000000D+00  0.0000000000000D+00  0.0000000000000D+00
   392  3.9100000000000D+00  0.0000000000000D+00  0.0000000000000D+00
   393  3.9200000000000D+00  0.0000000000000D+00  0.0000000000000D+00
   394  3.9300000000000D+00  0.0000000000000D+00  0.0000000000000D+00
   395  3.9400000000000D+00  0.0000000000000D+00  0.0000000000000D+00
   396  3.9500000000000D+00  0.0000000000000D+00  0.0000000000000D+00
   397  3.9600000000000D+00  0.0000000000000D+00  0.0000000000000D+00
   398  3.9700000000000D+00  0.0000000000000D+00  0.0000000000000D+00
   399  3.9800000000000D+00  0.0000000000000D+00  0.0000000000000D+00
   400  3.9900000000000D+00  0.0000000000000D+00  0.0000000000000D+00
   401  4.0000000000000D+00  0.0000000000000D+00  0.0000000000000D+00
   402  4.0100000000000D+00  0.0000000000000D+00  0.0000000000000D+00
   403  4.0200000000000D+00  0.0000000000000D+00  0.0000000000000D+00
   404  4.0300000000000D+00  0.0000000000000D+00  0.0000000000000D+00
   405  4.0400000000000D+00  0.0000000000000D+00  0.0000000000000D+00
   406  4.0500000000000D+00  0.0000000000000D+00  0.0000000000000D+00
   407  4.0600000000000D+00  0.0000000000000D+00  0.0000000000000D+00
   408  4.0700000000000D+00  0.0000000000000D+00  0.0000000000000D+00
   409  4.0800000000000D+00  0.0000000000000D+00  0.0000000000000D+00
   410  4.0900000000000D+00  0.0000000000000D+00  0.0000000000000D+00
   411  4.1000000000000D+00  0.0000000000000D+00  0.0000000000000D+00
   412  4.1100000000000D+00  0.0000000000000D+00  0.0000000000000D+00
   413  4.1200000000000D+00  0.0000000000000D+00  0.0000000000000D+00
   414  4.1300000000000D+00  0.0000000000000D+00  0.0000000000000D+00
   415  4.1400000000000D+00  0.0000000000000D+00  0.0000000000000D+00
   416  4.1500000000000D+00  0.0000000000000D+00  0.0000000000000D+00
   417  4.1600000000000D+00  0.0000000000000D+00  0.0000000000000D+00
   418  4.1700000000000D+00  0.0000000000000D+00  0.0000000000000D+00
   419  4.1800000000000D+00  0.0000000000000D+00  0.0000000000000D+00
   420  4.1900000000000D+00  0.0000000000000D+00  0.0000000000000D+00
   421  4.2000000000000D+00  0.0000000000000D+00  0.0000000000000D+00
   422  4.2100000000000D+00  0.0000000000000D+00  0.0000000000000D+00