S     ONCVPSP-3.3.0  r_core=   1.40265   1.56162   1.80194
     16.0000     14.0000      220408    zatom,zion,pspd
     8       2   2     4   600     0    pspcod,pspxc,lmax,lloc,mmax,r2well
  5.99000000  0.00000000  0.00000000    rchrg fchrg qchrg
     2     2     2     0     0    nproj
     1     1           extension_switch
   0                        -6.1891291997128D+00 -1.1825146336439D+00
     1  0.0000000000000D+00 -7.3557382407330D-11  9.4480451240386D-10
     2  1.0000000000000D-02  7.7108761423261D-02 -6.3415242836684D-02
     3  2.0000000000000D-02  1.5403499932918D-01 -1.2647310410153D-01
     4  3.0000000000000D-02  2.3059679536804D-01 -1.8881837865658D-01
     5  4.0000000000000D-02  3.0661343885350D-01 -2.5010019485894D-01
     6  5.0000000000000D-02  3.8190602393371D-01 -3.0997413312168D-01
     7  6.0000000000000D-02  4.5629803882250D-01 -3.6810428733368D-01
     8  7.0000000000000D-02  5.2961594453139D-01 -4.2416525121890D-01
     9  8.0000000000000D-02  6.0168974061689D-01 -4.7784401266009D-01
    10  9.0000000000000D-02  6.7235351554746D-01 -5.2884174016667D-01
    11  1.0000000000000D-01  7.4144597940093D-01 -5.7687544701328D-01
    12  1.1000000000000D-01  8.0881097672309D-01 -6.2167952009530D-01
    13  1.2000000000000D-01  8.7429797751186D-01 -6.6300710221753D-01
    14  1.3000000000000D-01  9.3776254443614D-01 -7.0063131832729D-01
    15  1.4000000000000D-01  9.9906677455303D-01 -7.3434633809808D-01
    16  1.5000000000000D-01  1.0580797139499D+00 -7.6396826923523D-01
    17  1.6000000000000D-01  1.1146777439066D+00 -7.8933587788332D-01
    18  1.7000000000000D-01  1.1687449373467D+00 -8.1031113453603D-01
    19  1.8000000000000D-01  1.2201733845221D+00 -8.2677958585409D-01
    20  1.9000000000000D-01  1.2688634870523D+00 -8.3865055475571D-01
    21  2.0000000000000D-01  1.3147242196149D+00 -8.4585717302997D-01
    22  2.1000000000000D-01  1.3576733587566D+00 -8.4835625250786D-01
    23  2.2000000000000D-01  1.3976376784629D+00 -8.4612800248468D-01
    24  2.3000000000000D-01  1.4345531122853D+00 -8.3917560259718D-01
    25  2.4000000000000D-01  1.4683648819821D+00 -8.2752464169799D-01
    26  2.5000000000000D-01  1.4990275927747D+00 -8.1122243442166D-01
    27  2.6000000000000D-01  1.5265052954568D+00 -7.9033722808516D-01
    28  2.7000000000000D-01  1.5507715157242D+00 -7.6495731329941D-01
    29  2.8000000000000D-01  1.5718092512052D+00 -7.3519005217986D-01
    30  2.9000000000000D-01  1.5896109367794D+00 -7.0116083832731D-01
    31  3.0000000000000D-01  1.6041783788635D+00 -6.6301200280632D-01
    32  3.1000000000000D-01  1.6155226594253D+00 -6.2090168017789D-01
    33  3.2000000000000D-01  1.6236640105582D+00 -5.7500264825474D-01
    34  3.3000000000000D-01  1.6286316605061D+00 -5.2550115464952D-01
    35  3.4000000000000D-01  1.6304636520794D+00 -4.7259574239317D-01
    36  3.5000000000000D-01  1.6292066344428D+00 -4.1649608592908D-01
    37  3.6000000000000D-01  1.6249156292848D+00 -3.5742184765773D-01
    38  3.7000000000000D-01  1.6176537724045D+00 -2.9560156393914D-01
    39  3.8000000000000D-01  1.6074920317689D+00 -2.3127156808049D-01
    40  3.9000000000000D-01  1.5945089031045D+00 -1.6467495637082D-01
    41  4.0000000000000D-01  1.5787900840976D+00 -9.6060601701204D-02
    42  4.1000000000000D-01  1.5604281282844D+00 -2.5682217756012D-02
    43  4.2000000000000D-01  1.5395220797148D+00  4.6202524791678D-02
    44  4.3000000000000D-01  1.5161770894845D+00  1.1933283017026D-01
    45  4.4000000000000D-01  1.4905040152331D+00  1.9344555903965D-01
    46  4.5000000000000D-01  1.4626190047183D+00  2.6827596259386D-01
    47  4.6000000000000D-01  1.4326430645927D+00  3.4355837343365D-01
    48  4.7000000000000D-01  1.4007016155245D+00  4.1902685853551D-01
    49  4.8000000000000D-01  1.3669240348336D+00  4.9441584061096D-01
    50  4.9000000000000D-01  1.3314431878419D+00  5.6946069494016D-01
    51  5.0000000000000D-01  1.2943949491770D+00  6.4389832935770D-01
    52  5.1000000000000D-01  1.2559177153119D+00  7.1746775545433D-01
    53  5.2000000000000D-01  1.2161519096762D+00  7.8991065922677D-01
    54  5.3000000000000D-01  1.1752394817308D+00  8.6097197935315D-01
    55  5.4000000000000D-01  1.1333234014646D+00  9.3040050099300D-01
    56  5.5000000000000D-01  1.0905471508369D+00  9.9794947251085D-01
    57  5.6000000000000D-01  1.0470542137688D+00  1.0633772518066D+00
    58  5.7000000000000D-01  1.0029875663561D+00  1.1264479880206D+00
    59  5.8000000000000D-01  9.5848916906137D-01  1.1869323432688D+00
    60  5.9000000000000D-01  9.1369946271567D-01  1.2446082577944D+00
    61  6.0000000000000D-01  8.6875687023969D-01  1.2992617604866D+00
    62  6.1000000000000D-01  8.2379730606601D-01  1.3506878251795D+00
    63  6.2000000000000D-01  7.7895369531121D-01  1.3986912714921D+00
    64  6.3000000000000D-01  7.3435550480624D-01  1.4430877072654D+00
    65  6.4000000000000D-01  6.9012828814305D-01  1.4837045079149D+00
    66  6.5000000000000D-01  6.4639324693355D-01  1.5203818262672D+00
    67  6.6000000000000D-01  6.0326681050058D-01  1.5529736247539D+00
    68  6.7000000000000D-01  5.6086023622927D-01  1.5813487201936D+00
    69  6.8000000000000D-01  5.1927923279699D-01  1.6053918298587D+00
    70  6.9000000000000D-01  4.7862360847181D-01  1.6250046061298D+00
    71  7.0000000000000D-01  4.3898694661944D-01  1.6401066458102D+00
    72  7.1000000000000D-01  4.0045631048699D-01  1.6506364591372D+00
    73  7.2000000000000D-01  3.6311197923736D-01  1.6565523827198D+00
    74  7.3000000000000D-01  3.2702721708936D-01  1.6578334200724D+00
    75  7.4000000000000D-01  2.9226807727711D-01  1.6544799931134D+00
    76  7.5000000000000D-01  2.5889324237541D-01  1.6465145879894D+00
    77  7.6000000000000D-01  2.2695390234825D-01  1.6339822788643D+00
    78  7.7000000000000D-01  1.9649367146485D-01  1.6169511138951D+00
    79  7.8000000000000D-01  1.6754854499363D-01  1.5955123484992D+00
    80  7.9000000000000D-01  1.4014689632957D-01  1.5697805122016D+00
    81  8.0000000000000D-01  1.1430951493799D-01  1.5398932968232D+00
    82  8.1000000000000D-01  9.0049685208715D-02  1.5060112555194D+00
    83  8.2000000000000D-01  6.7373306012384D-02  1.4683173041896D+00
    84  8.3000000000000D-01  4.6279050437628D-02  1.4270160190179D+00
    85  8.4000000000000D-01  2.6758564867450D-02  1.3823327263580D+00
    86  8.5000000000000D-01  8.7967062292649D-03  1.3345123837971D+00
    87  8.6000000000000D-01 -7.6281840723067D-03  1.2838182540004D+00
    88  8.7000000000000D-01 -2.2543971351643D-02  1.2305303758025D+00
    89  8.8000000000000D-01 -3.5984386093135D-02  1.1749438399327D+00
    90  8.9000000000000D-01 -4.7988652085368D-02  1.1173668796996D+00
    91  9.0000000000000D-01 -5.8601086954716D-02  1.0581187898697D+00
    92  9.1000000000000D-01 -6.7870678082692D-02  9.9752768980376D-01
    93  9.2000000000000D-01 -7.5850637137137D-02  9.3592814962623D-01
    94  9.3000000000000D-01 -8.2597936666400D-02  8.7365870074273D-01
    95  9.4000000000000D-01 -8.8172832395035D-02  8.1105925435511D-01
    96  9.5000000000000D-01 -9.2638375015986D-02  7.4846845370109D-01
    97  9.6000000000000D-01 -9.6059915395057D-02  6.8622098753566D-01
    98  9.7000000000000D-01 -9.8504607186345D-02  6.2464489383469D-01
    99  9.8000000000000D-01 -1.0004091090050D-01  5.6405888380923D-01
   100  9.9000000000000D-01 -1.0073810346875D-01  5.0476971704326D-01
   101  1.0000000000000D+00 -1.0066579730467D-01  4.4706965888091D-01
   102  1.0100000000000D+00 -9.9893472785328D-02  3.9123405111669D-01
   103  1.0200000000000D+00 -9.8490027943098D-02  3.3751902649367D-01
   104  1.0300000000000D+00 -9.6523348994737D-02  2.8615939657406D-01
   105  1.0400000000000D+00 -9.4059905125938D-02  2.3736674117234D-01
   106  1.0500000000000D+00 -9.1164370697705D-02  1.9132772570700D-01
   107  1.0600000000000D+00 -8.7899277760995D-02  1.4820267065661D-01
   108  1.0700000000000D+00 -8.4324701457578D-02  1.0812439481812D-01
   109  1.0800000000000D+00 -8.0497980515529D-02  7.1197350953700D-02
   110  1.0900000000000D+00 -7.6473474695792D-02  3.7497069366375D-02
   111  1.1000000000000D+00 -7.2302360622049D-02  7.0699211863283D-03
   112  1.1100000000000D+00 -6.8032467052960D-02 -2.0066790215478D-02
   113  1.1200000000000D+00 -6.3708150197001D-02 -4.3924405471542D-02
   114  1.1300000000000D+00 -5.9370209237167D-02 -6.4542152948119D-02
   115  1.1400000000000D+00 -5.5055841792084D-02 -8.1986063949449D-02
   116  1.1500000000000D+00 -5.0798638630606D-02 -9.6347567283895D-02
   117  1.1600000000000D+00 -4.6628616573417D-02 -1.0774177451810D-01
   118  1.1700000000000D+00 -4.2572287821370D-02 -1.1630547515444D-01
   119  1.1800000000000D+00 -3.8652765200817D-02 -1.2219484165095D-01
   120  1.1900000000000D+00 -3.4889888320205D-02 -1.2558304813307D-01
   121  1.2000000000000D+00 -3.1300420938881D-02 -1.2665707452976D-01
   122  1.2100000000000D+00 -2.7898191286024D-02 -1.2561552203969D-01
   123  1.2200000000000D+00 -2.4694059417372D-02 -1.2266911051378D-01
   124  1.2300000000000D+00 -2.1695897543601D-02 -1.1804096280818D-01
   125  1.2400000000000D+00 -1.8908695687021D-02 -1.1196517059381D-01
   126  1.2500000000000D+00 -1.6334854601955D-02 -1.0468276162255D-01
   127  1.2600000000000D+00 -1.3974426908493D-02 -9.6438595178563D-02
   128  1.2700000000000D+00 -1.1825384815387D-02 -8.7477992623185D-02
   129  1.2800000000000D+00 -9.8838869676497D-03 -7.8043492596897D-02
   130  1.2900000000000D+00 -8.1445461942339D-03 -6.8371682143465D-02
   131  1.3000000000000D+00 -6.6006926030317D-03 -5.8690165739515D-02
   132  1.3100000000000D+00 -5.2446285562983D-03 -4.9214704416585D-02
   133  1.3200000000000D+00 -4.0678716815874D-03 -4.0146562184497D-02
   134  1.3300000000000D+00 -3.0613827991532D-03 -3.1670089784690D-02
   135  1.3400000000000D+00 -2.2157757281086D-03 -2.3950574897152D-02
   136  1.3500000000000D+00 -1.5215059654271D-03 -1.7132387715984D-02
   137  1.3600000000000D+00 -9.6927418015013D-04 -1.1340821885796D-02
   138  1.3700000000000D+00 -5.4887276086895D-04 -6.6624795899356D-03
   139  1.3800000000000D+00 -2.5066968881829D-04 -3.1637921606097D-03
   140  1.3900000000000D+00 -7.2700925240043D-05 -9.9192730755101D-04
   141  1.4000000000000D+00  2.3688498373566D-06 -4.0400354306000D-05
   142  1.4100000000000D+00  1.2091121774291D-05  1.2024062955304D-04
   143  1.4200000000000D+00 -4.1268916287336D-07 -4.3353152118781D-06
   144  1.4300000000000D+00 -2.6997993899670D-06 -2.9212563858882D-05
   145  1.4400000000000D+00  4.1428921802924D-07  4.1988448898045D-06
   146  1.4500000000000D+00  3.6916480834021D-07  3.7834169067324D-06
   147  1.4600000000000D+00 -2.5615134958968D-08 -1.5647410586055D-07
   148  1.4700000000000D+00 -5.5218417592333D-09 -3.3731044297192D-08
   149  1.4800000000000D+00  0.0000000000000D+00  0.0000000000000D+00
   150  1.4900000000000D+00  0.0000000000000D+00  0.0000000000000D+00
   151  1.5000000000000D+00  0.0000000000000D+00  0.0000000000000D+00
   152  1.5100000000000D+00  0.0000000000000D+00  0.0000000000000D+00
   153  1.5200000000000D+00  0.0000000000000D+00  0.0000000000000D+00
   154  1.5300000000000D+00  0.0000000000000D+00  0.0000000000000D+00
   155  1.5400000000000D+00  0.0000000000000D+00  0.0000000000000D+00
   156  1.5500000000000D+00  0.0000000000000D+00  0.0000000000000D+00
   157  1.5600000000000D+00  0.0000000000000D+00  0.0000000000000D+00
   158  1.5700000000000D+00  0.0000000000000D+00  0.0000000000000D+00
   159  1.5800000000000D+00  0.0000000000000D+00  0.0000000000000D+00
   160  1.5900000000000D+00  0.0000000000000D+00  0.0000000000000D+00
   161  1.6000000000000D+00  0.0000000000000D+00  0.0000000000000D+00
   162  1.6100000000000D+00  0.0000000000000D+00  0.0000000000000D+00
   163  1.6200000000000D+00  0.0000000000000D+00  0.0000000000000D+00
   164  1.6300000000000D+00  0.0000000000000D+00  0.0000000000000D+00
   165  1.6400000000000D+00  0.0000000000000D+00  0.0000000000000D+00
   166  1.6500000000000D+00  0.0000000000000D+00  0.0000000000000D+00
   167  1.6600000000000D+00  0.0000000000000D+00  0.0000000000000D+00
   168  1.6700000000000D+00  0.0000000000000D+00  0.0000000000000D+00
   169  1.6800000000000D+00  0.0000000000000D+00  0.0000000000000D+00
   170  1.6900000000000D+00  0.0000000000000D+00  0.0000000000000D+00
   171  1.7000000000000D+00  0.0000000000000D+00  0.0000000000000D+00
   172  1.7100000000000D+00  0.0000000000000D+00  0.0000000000000D+00
   173  1.7200000000000D+00  0.0000000000000D+00  0.0000000000000D+00
   174  1.7300000000000D+00  0.0000000000000D+00  0.0000000000000D+00
   175  1.7400000000000D+00  0.0000000000000D+00  0.0000000000000D+00
   176  1.7500000000000D+00  0.0000000000000D+00  0.0000000000000D+00
   177  1.7600000000000D+00  0.0000000000000D+00  0.0000000000000D+00
   178  1.7700000000000D+00  0.0000000000000D+00  0.0000000000000D+00
   179  1.7800000000000D+00  0.0000000000000D+00  0.0000000000000D+00
   180  1.7900000000000D+00  0.0000000000000D+00  0.0000000000000D+00
   181  1.8000000000000D+00  0.0000000000000D+00  0.0000000000000D+00
   182  1.8100000000000D+00  0.0000000000000D+00  0.0000000000000D+00
   183  1.8200000000000D+00  0.0000000000000D+00  0.0000000000000D+00
   184  1.8300000000000D+00  0.0000000000000D+00  0.0000000000000D+00
   185  1.8400000000000D+00  0.0000000000000D+00  0.0000000000000D+00
   186  1.8500000000000D+00  0.0000000000000D+00  0.0000000000000D+00
   187  1.8600000000000D+00  0.0000000000000D+00  0.0000000000000D+00
   188  1.8700000000000D+00  0.0000000000000D+00  0.0000000000000D+00
   189  1.8800000000000D+00  0.0000000000000D+00  0.0000000000000D+00
   190  1.8900000000000D+00  0.0000000000000D+00  0.0000000000000D+00
   191  1.9000000000000D+00  0.0000000000000D+00  0.0000000000000D+00
   192  1.9100000000000D+00  0.0000000000000D+00  0.0000000000000D+00
   193  1.9200000000000D+00  0.0000000000000D+00  0.0000000000000D+00
   194  1.9300000000000D+00  0.0000000000000D+00  0.0000000000000D+00
   195  1.9400000000000D+00  0.0000000000000D+00  0.0000000000000D+00
   196  1.9500000000000D+00  0.0000000000000D+00  0.0000000000000D+00
   197  1.9600000000000D+00  0.0000000000000D+00  0.0000000000000D+00
   198  1.9700000000000D+00  0.0000000000000D+00  0.0000000000000D+00
   199  1.9800000000000D+00  0.0000000000000D+00  0.0000000000000D+00
   200  1.9900000000000D+00  0.0000000000000D+00  0.0000000000000D+00
   201  2.0000000000000D+00  0.0000000000000D+00  0.0000000000000D+00
   202  2.0100000000000D+00  0.0000000000000D+00  0.0000000000000D+00
   203  2.0200000000000D+00  0.0000000000000D+00  0.0000000000000D+00
   204  2.0300000000000D+00  0.0000000000000D+00  0.0000000000000D+00
   205  2.0400000000000D+00  0.0000000000000D+00  0.0000000000000D+00
   206  2.0500000000000D+00  0.0000000000000D+00  0.0000000000000D+00
   207  2.0600000000000D+00  0.0000000000000D+00  0.0000000000000D+00
   208  2.0700000000000D+00  0.0000000000000D+00  0.0000000000000D+00
   209  2.0800000000000D+00  0.0000000000000D+00  0.0000000000000D+00
   210  2.0900000000000D+00  0.0000000000000D+00  0.0000000000000D+00
   211  2.1000000000000D+00  0.0000000000000D+00  0.0000000000000D+00
   212  2.1100000000000D+00  0.0000000000000D+00  0.0000000000000D+00
   213  2.1200000000000D+00  0.0000000000000D+00  0.0000000000000D+00
   214  2.1300000000000D+00  0.0000000000000D+00  0.0000000000000D+00
   215  2.1400000000000D+00  0.0000000000000D+00  0.0000000000000D+00
   216  2.1500000000000D+00  0.0000000000000D+00  0.0000000000000D+00
   217  2.1600000000000D+00  0.0000000000000D+00  0.0000000000000D+00
   218  2.1700000000000D+00  0.0000000000000D+00  0.0000000000000D+00
   219  2.1800000000000D+00  0.0000000000000D+00  0.0000000000000D+00
   220  2.1900000000000D+00  0.0000000000000D+00  0.0000000000000D+00
   221  2.2000000000000D+00  0.0000000000000D+00  0.0000000000000D+00
   222  2.2100000000000D+00  0.0000000000000D+00  0.0000000000000D+00
   223  2.2200000000000D+00  0.0000000000000D+00  0.0000000000000D+00
   224  2.2300000000000D+00  0.0000000000000D+00  0.0000000000000D+00
   225  2.2400000000000D+00  0.0000000000000D+00  0.0000000000000D+00
   226  2.2500000000000D+00  0.0000000000000D+00  0.0000000000000D+00
   227  2.2600000000000D+00  0.0000000000000D+00  0.0000000000000D+00
   228  2.2700000000000D+00  0.0000000000000D+00  0.0000000000000D+00
   229  2.2800000000000D+00  0.0000000000000D+00  0.0000000000000D+00
   230  2.2900000000000D+00  0.0000000000000D+00  0.0000000000000D+00
   231  2.3000000000000D+00  0.0000000000000D+00  0.0000000000000D+00
   232  2.3100000000000D+00  0.0000000000000D+00  0.0000000000000D+00
   233  2.3200000000000D+00  0.0000000000000D+00  0.0000000000000D+00
   234  2.3300000000000D+00  0.0000000000000D+00  0.0000000000000D+00
   235  2.3400000000000D+00  0.0000000000000D+00  0.0000000000000D+00
   236  2.3500000000000D+00  0.0000000000000D+00  0.0000000000000D+00
   237  2.3600000000000D+00  0.0000000000000D+00  0.0000000000000D+00
   238  2.3700000000000D+00  0.0000000000000D+00  0.0000000000000D+00
   239  2.3800000000000D+00  0.0000000000000D+00  0.0000000000000D+00
   240  2.3900000000000D+00  0.0000000000000D+00  0.0000000000000D+00
   241  2.4000000000000D+00  0.0000000000000D+00  0.0000000000000D+00
   242  2.4100000000000D+00  0.0000000000000D+00  0.0000000000000D+00
   243  2.4200000000000D+00  0.0000000000000D+00  0.0000000000000D+00
   244  2.4300000000000D+00  0.0000000000000D+00  0.0000000000000D+00
   245  2.4400000000000D+00  0.0000000000000D+00  0.0000000000000D+00
   246  2.4500000000000D+00  0.0000000000000D+00  0.0000000000000D+00
   247  2.4600000000000D+00  0.0000000000000D+00  0.0000000000000D+00
   248  2.4700000000000D+00  0.0000000000000D+00  0.0000000000000D+00
   249  2.4800000000000D+00  0.0000000000000D+00  0.0000000000000D+00
   250  2.4900000000000D+00  0.0000000000000D+00  0.0000000000000D+00
   251  2.5000000000000D+00  0.0000000000000D+00  0.0000000000000D+00
   252  2.5100000000000D+00  0.0000000000000D+00  0.0000000000000D+00
   253  2.5200000000000D+00  0.0000000000000D+00  0.0000000000000D+00
   254  2.5300000000000D+00  0.0000000000000D+00  0.0000000000000D+00
   255  2.5400000000000D+00  0.0000000000000D+00  0.0000000000000D+00
   256  2.5500000000000D+00  0.0000000000000D+00  0.0000000000000D+00
   257  2.5600000000000D+00  0.0000000000000D+00  0.0000000000000D+00
   258  2.5700000000000D+00  0.0000000000000D+00  0.0000000000000D+00
   259  2.5800000000000D+00  0.0000000000000D+00  0.0000000000000D+00
   260  2.5900000000000D+00  0.0000000000000D+00  0.0000000000000D+00
   261  2.6000000000000D+00  0.0000000000000D+00  0.0000000000000D+00
   262  2.6100000000000D+00  0.0000000000000D+00  0.0000000000000D+00
   263  2.6200000000000D+00  0.0000000000000D+00  0.0000000000000D+00
   264  2.6300000000000D+00  0.0000000000000D+00  0.0000000000000D+00
   265  2.6400000000000D+00  0.0000000000000D+00  0.0000000000000D+00
   266  2.6500000000000D+00  0.0000000000000D+00  0.0000000000000D+00
   267  2.6600000000000D+00  0.0000000000000D+00  0.0000000000000D+00
   268  2.6700000000000D+00  0.0000000000000D+00  0.0000000000000D+00
   269  2.6800000000000D+00  0.0000000000000D+00  0.0000000000000D+00
   270  2.6900000000000D+00  0.0000000000000D+00  0.0000000000000D+00
   271  2.7000000000000D+00  0.0000000000000D+00  0.0000000000000D+00
   272  2.7100000000000D+00  0.0000000000000D+00  0.0000000000000D+00
   273  2.7200000000000D+00  0.0000000000000D+00  0.0000000000000D+00
   274  2.7300000000000D+00  0.0000000000000D+00  0.0000000000000D+00
   275  2.7400000000000D+00  0.0000000000000D+00  0.0000000000000D+00
   276  2.7500000000000D+00  0.0000000000000D+00  0.0000000000000D+00
   277  2.7600000000000D+00  0.0000000000000D+00  0.0000000000000D+00
   278  2.7700000000000D+00  0.0000000000000D+00  0.0000000000000D+00
   279  2.7800000000000D+00  0.0000000000000D+00  0.0000000000000D+00
   280  2.7900000000000D+00  0.0000000000000D+00  0.0000000000000D+00
   281  2.8000000000000D+00  0.0000000000000D+00  0.0000000000000D+00
   282  2.8100000000000D+00  0.0000000000000D+00  0.0000000000000D+00
   283  2.8200000000000D+00  0.0000000000000D+00  0.0000000000000D+00
   284  2.8300000000000D+00  0.0000000000000D+00  0.0000000000000D+00
   285  2.8400000000000D+00  0.0000000000000D+00  0.0000000000000D+00
   286  2.8500000000000D+00  0.0000000000000D+00  0.0000000000000D+00
   287  2.8600000000000D+00  0.0000000000000D+00  0.0000000000000D+00
   288  2.8700000000000D+00  0.0000000000000D+00  0.0000000000000D+00
   289  2.8800000000000D+00  0.0000000000000D+00  0.0000000000000D+00
   290  2.8900000000000D+00  0.0000000000000D+00  0.0000000000000D+00
   291  2.9000000000000D+00  0.0000000000000D+00  0.0000000000000D+00
   292  2.9100000000000D+00  0.0000000000000D+00  0.0000000000000D+00
   293  2.9200000000000D+00  0.0000000000000D+00  0.0000000000000D+00
   294  2.9300000000000D+00  0.0000000000000D+00  0.0000000000000D+00
   295  2.9400000000000D+00  0.0000000000000D+00  0.0000000000000D+00
   296  2.9500000000000D+00  0.0000000000000D+00  0.0000000000000D+00
   297  2.9600000000000D+00  0.0000000000000D+00  0.0000000000000D+00
   298  2.9700000000000D+00  0.0000000000000D+00  0.0000000000000D+00
   299  2.9800000000000D+00  0.0000000000000D+00  0.0000000000000D+00
   300  2.9900000000000D+00  0.0000000000000D+00  0.0000000000000D+00
   301  3.0000000000000D+00  0.0000000000000D+00  0.0000000000000D+00
   302  3.0100000000000D+00  0.0000000000000D+00  0.0000000000000D+00
   303  3.0200000000000D+00  0.0000000000000D+00  0.0000000000000D+00
   304  3.0300000000000D+00  0.0000000000000D+00  0.0000000000000D+00
   305  3.0400000000000D+00  0.0000000000000D+00  0.0000000000000D+00
   306  3.0500000000000D+00  0.0000000000000D+00  0.0000000000000D+00
   307  3.0600000000000D+00  0.0000000000000D+00  0.0000000000000D+00
   308  3.0700000000000D+00  0.0000000000000D+00  0.0000000000000D+00
   309  3.0800000000000D+00  0.0000000000000D+00  0.0000000000000D+00
   310  3.0900000000000D+00  0.0000000000000D+00  0.0000000000000D+00
   311  3.1000000000000D+00  0.0000000000000D+00  0.0000000000000D+00
   312  3.1100000000000D+00  0.0000000000000D+00  0.0000000000000D+00
   313  3.1200000000000D+00  0.0000000000000D+00  0.0000000000000D+00
   314  3.1300000000000D+00  0.0000000000000D+00  0.0000000000000D+00
   315  3.1400000000000D+00  0.0000000000000D+00  0.0000000000000D+00
   316  3.1500000000000D+00  0.0000000000000D+00  0.0000000000000D+00
   317  3.1600000000000D+00  0.0000000000000D+00  0.0000000000000D+00
   318  3.1700000000000D+00  0.0000000000000D+00  0.0000000000000D+00
   319  3.1800000000000D+00  0.0000000000000D+00  0.0000000000000D+00
   320  3.1900000000000D+00  0.0000000000000D+00  0.0000000000000D+00
   321  3.2000000000000D+00  0.0000000000000D+00  0.0000000000000D+00
   322  3.2100000000000D+00  0.0000000000000D+00  0.0000000000000D+00
   323  3.2200000000000D+00  0.0000000000000D+00  0.0000000000000D+00
   324  3.2300000000000D+00  0.0000000000000D+00  0.0000000000000D+00
   325  3.2400000000000D+00  0.0000000000000D+00  0.0000000000000D+00
   326  3.2500000000000D+00  0.0000000000000D+00  0.0000000000000D+00
   327  3.2600000000000D+00  0.0000000000000D+00  0.0000000000000D+00
   328  3.2700000000000D+00  0.0000000000000D+00  0.0000000000000D+00
   329  3.2800000000000D+00  0.0000000000000D+00  0.0000000000000D+00
   330  3.2900000000000D+00  0.0000000000000D+00  0.0000000000000D+00
   331  3.3000000000000D+00  0.0000000000000D+00  0.0000000000000D+00
   332  3.3100000000000D+00  0.0000000000000D+00  0.0000000000000D+00
   333  3.3200000000000D+00  0.0000000000000D+00  0.0000000000000D+00
   334  3.3300000000000D+00  0.0000000000000D+00  0.0000000000000D+00
   335  3.3400000000000D+00  0.0000000000000D+00  0.0000000000000D+00
   336  3.3500000000000D+00  0.0000000000000D+00  0.0000000000000D+00
   337  3.3600000000000D+00  0.0000000000000D+00  0.0000000000000D+00
   338  3.3700000000000D+00  0.0000000000000D+00  0.0000000000000D+00
   339  3.3800000000000D+00  0.0000000000000D+00  0.0000000000000D+00
   340  3.3900000000000D+00  0.0000000000000D+00  0.0000000000000D+00
   341  3.4000000000000D+00  0.0000000000000D+00  0.0000000000000D+00
   342  3.4100000000000D+00  0.0000000000000D+00  0.0000000000000D+00
   343  3.4200000000000D+00  0.0000000000000D+00  0.0000000000000D+00
   344  3.4300000000000D+00  0.0000000000000D+00  0.0000000000000D+00
   345  3.4400000000000D+00  0.0000000000000D+00  0.0000000000000D+00
   346  3.4500000000000D+00  0.0000000000000D+00  0.0000000000000D+00
   347  3.4600000000000D+00  0.0000000000000D+00  0.0000000000000D+00
   348  3.4700000000000D+00  0.0000000000000D+00  0.0000000000000D+00
   349  3.4800000000000D+00  0.0000000000000D+00  0.0000000000000D+00
   350  3.4900000000000D+00  0.0000000000000D+00  0.0000000000000D+00
   351  3.5000000000000D+00  0.0000000000000D+00  0.0000000000000D+00
   352  3.5100000000000D+00  0.0000000000000D+00  0.0000000000000D+00
   353  3.5200000000000D+00  0.0000000000000D+00  0.0000000000000D+00
   354  3.5300000000000D+00  0.0000000000000D+00  0.0000000000000D+00
   355  3.5400000000000D+00  0.0000000000000D+00  0.0000000000000D+00
   356  3.5500000000000D+00  0.0000000000000D+00  0.0000000000000D+00
   357  3.5600000000000D+00  0.0000000000000D+00  0.0000000000000D+00
   358  3.5700000000000D+00  0.0000000000000D+00  0.0000000000000D+00
   359  3.5800000000000D+00  0.0000000000000D+00  0.0000000000000D+00
   360  3.5900000000000D+00  0.0000000000000D+00  0.0000000000000D+00
   361  3.6000000000000D+00  0.0000000000000D+00  0.0000000000000D+00
   362  3.6100000000000D+00  0.0000000000000D+00  0.0000000000000D+00
   363  3.6200000000000D+00  0.0000000000000D+00  0.0000000000000D+00
   364  3.6300000000000D+00  0.0000000000000D+00  0.0000000000000D+00
   365  3.6400000000000D+00  0.0000000000000D+00  0.0000000000000D+00
   366  3.6500000000000D+00  0.0000000000000D+00  0.0000000000000D+00
   367  3.6600000000000D+00  0.0000000000000D+00  0.0000000000000D+00
   368  3.6700000000000D+00  0.0000000000000D+00  0.0000000000000D+00
   369  3.6800000000000D+00  0.0000000000000D+00  0.0000000000000D+00
   370  3.6900000000000D+00  0.0000000000000D+00  0.0000000000000D+00
   371  3.7000000000000D+00  0.0000000000000D+00  0.0000000000000D+00
   372  3.7100000000000D+00  0.0000000000000D+00  0.0000000000000D+00
   373  3.7200000000000D+00  0.0000000000000D+00  0.0000000000000D+00
   374  3.7300000000000D+00  0.0000000000000D+00  0.0000000000000D+00
   375  3.7400000000000D+00  0.0000000000000D+00  0.0000000000000D+00
   376  3.7500000000000D+00  0.0000000000000D+00  0.0000000000000D+00
   377  3.7600000000000D+00  0.0000000000000D+00  0.0000000000000D+00
   378  3.7700000000000D+00  0.0000000000000D+00  0.0000000000000D+00
   379  3.7800000000000D+00  0.0000000000000D+00  0.0000000000000D+00
   380  3.7900000000000D+00  0.0000000000000D+00  0.0000000000000D+00
   381  3.8000000000000D+00  0.0000000000000D+00  0.0000000000000D+00
   382  3.8100000000000D+00  0.0000000000000D+00  0.0000000000000D+00
   383  3.8200000000000D+00  0.0000000000000D+00  0.0000000000000D+00
   384  3.8300000000000D+00  0.0000000000000D+00  0.0000000000000D+00
   385  3.8400000000000D+00  0.0000000000000D+00  0.0000000000000D+00
   386  3.8500000000000D+00  0.0000000000000D+00  0.0000000000000D+00
   387  3.8600000000000D+00  0.0000000000000D+00  0.0000000000000D+00
   388  3.8700000000000D+00  0.0000000000000D+00  0.0000000000000D+00
   389  3.8800000000000D+00  0.0000000000000D+00  0.0000000000000D+00
   390  3.8900000000000D+00  0.0000000000000D+00  0.0000000000000D+00
   391  3.9000000000000D+00  0.0000000000000D+00  0.0000000000000D+00
   392  3.9100000000000D+00  0.0000000000000D+00  0.0000000000000D+00
   393  3.9200000000000D+00  0.0000000000000D+00  0.0000000000000D+00
   394  3.9300000000000D+00  0.0000000000000D+00  0.0000000000000D+00
   395  3.9400000000000D+00  0.0000000000000D+00  0.0000000000000D+00
   396  3.9500000000000D+00  0.0000000000000D+00  0.0000000000000D+00
   397  3.9600000000000D+00  0.0000000000000D+00  0.0000000000000D+00
   398  3.9700000000000D+00  0.0000000000000D+00  0.0000000000000D+00
   399  3.9800000000000D+00  0.0000000000000D+00  0.0000000000000D+00
   400  3.9900000000000D+00  0.0000000000000D+00  0.0000000000000D+00
   401  4.0000000000000D+00  0.0000000000000D+00  0.0000000000000D+00
   402  4.0100000000000D+00  0.0000000000000D+00  0.0000000000000D+00
   403  4.0200000000000D+00  0.0000000000000D+00  0.0000000000000D+00
   404  4.0300000000000D+00  0.0000000000000D+00  0.0000000000000D+00
   405  4.0400000000000D+00  0.0000000000000D+00  0.0000000000000D+00
   406  4.0500000000000D+00  0.0000000000000D+00  0.0000000000000D+00
   407  4.0600000000000D+00  0.0000000000000D+00  0.0000000000000D+00
   408  4.0700000000000D+00  0.0000000000000D+00  0.0000000000000D+00
   409  4.0800000000000D+00  0.0000000000000D+00  0.0000000000000D+00
   410  4.0900000000000D+00  0.0000000000000D+00  0.0000000000000D+00
   411  4.1000000000000D+00  0.0000000000000D+00  0.0000000000000D+00
   412  4.1100000000000D+00  0.0000000000000D+00  0.0000000000000D+00
   413  4.1200000000000D+00  0.0000000000000D+00  0.0000000000000D+00
   414  4.1300000000000D+00  0.0000000000000D+00  0.0000000000000D+00
   415  4.1400000000000D+00  0.0000000000000D+00  0.0000000000000D+00
   416  4.1500000000000D+00  0.0000000000000D+00  0.0000000000000D+00
   417  4.1600000000000D+00  0.0000000000000D+00  0.0000000000000D+00
   418  4.1700000000000D+00  0.0000000000000D+00  0.0000000000000D+00
   419  4.1800000000000D+00  0.0000000000000D+00  0.0000000000000D+00
   420  4.1900000000000D+00  0.0000000000000D+00  0.0000000000000D+00
   421  4.2000000000000D+00  0.0000000000000D+00  0.0000000000000D+00
   422  4.2100000000000D+00  0.0000000000000D+00  0.0000000000000D+00