S     ONCVPSP-3.3.0  r_core=   1.45376   1.45376   1.61851
     16.0000      6.0000      220408    zatom,zion,pspd
     8       2   2     4   600     0    pspcod,pspxc,lmax,lloc,mmax,r2well
  5.99000000  0.00000000  0.00000000    rchrg fchrg qchrg
     2     2     2     0     0    nproj
     1     1           extension_switch
   0                         6.8318710217222D+00  5.8586207322031D-01
     1  0.0000000000000D+00 -8.2181238481027D-09  3.3414800426623D-08
     2  1.0000000000000D-02  5.0149239398961D-02 -4.9246428178548D-02
     3  2.0000000000000D-02  1.0003421098241D-01 -9.7531349297343D-02
     4  3.0000000000000D-02  1.4939566280405D-01 -1.4391365892249D-01
     5  4.0000000000000D-02  1.9798426956544D-01 -1.8749262993278D-01
     6  5.0000000000000D-02  2.4556533537634D-01 -2.2742704012082D-01
     7  6.0000000000000D-02  2.9192318984978D-01 -2.6295305096902D-01
     8  7.0000000000000D-02  3.3686518519900D-01 -2.9340046153139D-01
     9  8.0000000000000D-02  3.8022521022114D-01 -3.1820699476684D-01
    10  9.0000000000000D-02  4.2186664700934D-01 -3.3693031415379D-01
    11  1.0000000000000D-01  4.6168470772791D-01 -3.4925751515018D-01
    12  1.1000000000000D-01  4.9960810158305D-01 -3.5501188810187D-01
    13  1.2000000000000D-01  5.3559999596341D-01 -3.5415680549320D-01
    14  1.3000000000000D-01  5.6965825033131D-01 -3.4679664583321D-01
    15  1.4000000000000D-01  6.0181491651871D-01 -3.3317472777724D-01
    16  1.5000000000000D-01  6.3213501431689D-01 -3.1366829004875D-01
    17  1.6000000000000D-01  6.6071460633373D-01 -2.8878061409108D-01
    18  1.7000000000000D-01  6.8767821072116D-01 -2.5913044589203D-01
    19  1.8000000000000D-01  7.1317560424696D-01 -2.2543892987052D-01
    20  1.9000000000000D-01  7.3737808101720D-01 -1.8851431993756D-01
    21  2.0000000000000D-01  7.6047424368216D-01 -1.4923477977070D-01
    22  2.1000000000000D-01  7.8266541394281D-01 -1.0852962500214D-01
    23  2.2000000000000D-01  8.0416075740831D-01 -6.7359393572316D-02
    24  2.3000000000000D-01  8.2517222416473D-01 -2.6695156238764D-02
    25  2.4000000000000D-01  8.4590941066718D-01  1.2502503392981D-02
    26  2.5000000000000D-01  8.6657445066743D-01  4.9304401313345D-02
    27  2.6000000000000D-01  8.8735704278802D-01  8.2833120334987D-02
    28  2.7000000000000D-01  9.0842972004469D-01  1.1228240369009D-01
    29  2.8000000000000D-01  9.2994346214081D-01  1.3693516468470D-01
    30  2.9000000000000D-01  9.5202374479329D-01  1.5617972867429D-01
    31  3.0000000000000D-01  9.7476711182312D-01  1.6952395817844D-01
    32  3.1000000000000D-01  9.9823834542146D-01  1.7660695381103D-01
    33  3.2000000000000D-01  1.0224682980847D+00  1.7720807204857D-01
    34  3.3000000000000D-01  1.0474524364346D+00  1.7125305473849D-01
    35  3.4000000000000D-01  1.0731501327668D+00  1.5881712359440D-01
    36  3.5000000000000D-01  1.0994847249853D+00  1.4012495457146D-01
    37  3.6000000000000D-01  1.1263443498917D+00  1.1554751073187D-01
    38  3.7000000000000D-01  1.1535835389169D+00  8.5595776709744D-02
    39  3.8000000000000D-01  1.1810255496299D+00  5.0911501872722D-02
    40  3.9000000000000D-01  1.2084653910633D+00  1.2255121442533D-02
    41  4.0000000000000D-01  1.2356734863484D+00 -2.9508916074309D-02
    42  4.1000000000000D-01  1.2623999026833D+00 -7.3429132008770D-02
    43  4.2000000000000D-01  1.2883790665131D+00 -1.1848597870876D-01
    44  4.3000000000000D-01  1.3133348712578D+00 -1.6361240337894D-01
    45  4.4000000000000D-01  1.3369860761933D+00 -2.0771560364712D-01
    46  4.5000000000000D-01  1.3590518883592D+00 -2.4969953650938D-01
    47  4.6000000000000D-01  1.3792576147911D+00 -2.8848772361924D-01
    48  4.7000000000000D-01  1.3973402700512D+00 -3.2304588635570D-01
    49  4.8000000000000D-01  1.4130540240226D+00 -3.5240394397964D-01
    50  4.9000000000000D-01  1.4261753772614D+00 -3.7567691753004D-01
    51  5.0000000000000D-01  1.4365079558212D+00 -3.9208430079588D-01
    52  5.1000000000000D-01  1.4438868243135D+00 -4.0096748739962D-01
    53  5.2000000000000D-01  1.4481822249076D+00 -4.0180487925428D-01
    54  5.3000000000000D-01  1.4493026608545D+00 -3.9422434575094D-01
    55  5.4000000000000D-01  1.4471972557161D+00 -3.7801275411456D-01
    56  5.5000000000000D-01  1.4418573335673D+00 -3.5312234848848D-01
    57  5.6000000000000D-01  1.4333171807506D+00 -3.1967381744726D-01
    58  5.7000000000000D-01  1.4216539659417D+00 -2.7795595526626D-01
    59  5.8000000000000D-01  1.4069868121422D+00 -2.2842189071381D-01
    60  5.9000000000000D-01  1.3894750312131D+00 -1.7168192611820D-01
    61  6.0000000000000D-01  1.3693155486305D+00 -1.0849309876326D-01
    62  6.1000000000000D-01  1.3467395626247D+00 -3.9745643585253D-02
    63  6.2000000000000D-01  1.3220084977549D+00  3.3553399313572D-02
    64  6.3000000000000D-01  1.2954093276480D+00  1.1029912920205D-01
    65  6.4000000000000D-01  1.2672493550034D+00  1.8930992382730D-01
    66  6.5000000000000D-01  1.2378505486761D+00  2.6935036802158D-01
    67  6.6000000000000D-01  1.2075435474057D+00  3.4915552706456D-01
    68  6.7000000000000D-01  1.1766614474675D+00  4.2745608869397D-01
    69  6.8000000000000D-01  1.1455334969009D+00  5.0300387574624D-01
    70  6.9000000000000D-01  1.1144788219511D+00  5.7459721923536D-01
    71  7.0000000000000D-01  1.0838003118690D+00  6.4110567953152D-01
    72  7.1000000000000D-01  1.0537787861852D+00  7.0149361146745D-01
    73  7.2000000000000D-01  1.0246675640666D+00  7.5484208742981D-01
    74  7.3000000000000D-01  9.9668754841142D-01  8.0036872065657D-01
    75  7.4000000000000D-01  9.7002292811456D-01  8.3744496834768D-01
    76  7.5000000000000D-01  9.4481759053804D-01  8.6561054042512D-01
    77  7.6000000000000D-01  9.2117232289108D-01  8.8458459385994D-01
    78  7.7000000000000D-01  8.9914286624318D-01  8.9427345328165D-01
    79  7.8000000000000D-01  8.7873886948638D-01  8.9477466519123D-01
    80  7.9000000000000D-01  8.5992377308179D-01  8.8637726407651D-01
    81  8.0000000000000D-01  8.4261563419688D-01  8.6955820276074D-01
    82  8.1000000000000D-01  8.2668888621969D-01  8.4497497495473D-01
    83  8.2000000000000D-01  8.1197700698995D-01  8.1345453374668D-01
    84  8.3000000000000D-01  7.9827605178397D-01  7.7597868415223D-01
    85  8.4000000000000D-01  7.8534898948500D-01  7.3366619942215D-01
    86  8.5000000000000D-01  7.7293076385589D-01  6.8775197797099D-01
    87  8.6000000000000D-01  7.6073398665630D-01  6.3956361953275D-01
    88  8.7000000000000D-01  7.4845515593034D-01  5.9049585376842D-01
    89  8.8000000000000D-01  7.3578128133091D-01  5.4198330124444D-01
    90  8.9000000000000D-01  7.2239678911653D-01  4.9547208435156D-01
    91  9.0000000000000D-01  7.0799057264125D-01  4.5239083359718D-01
    92  9.1000000000000D-01  6.9226304993600D-01  4.1412165204229D-01
    93  9.2000000000000D-01  6.7493308842537D-01  3.8197160717300D-01
    94  9.3000000000000D-01  6.5574465800541D-01  3.5714531490660D-01
    95  9.4000000000000D-01  6.3447307761979D-01  3.4071916476094D-01
    96  9.5000000000000D-01  6.1093072705854D-01  3.3361770868113D-01
    97  9.6000000000000D-01  5.8497210485724D-01  3.3659269905363D-01
    98  9.7000000000000D-01  5.5649812473707D-01  3.5020521468776D-01
    99  9.8000000000000D-01  5.2545955675987D-01  3.7481125796457D-01
   100  9.9000000000000D-01  4.9185953520988D-01  4.1055114221831D-01
   101  1.0000000000000D+00  4.5575507245376D-01  4.5734291856517D-01
   102  1.0100000000000D+00  4.1725753656300D-01  5.1488001627592D-01
   103  1.0200000000000D+00  3.7653207066151D-01  5.8263318896420D-01
   104  1.0300000000000D+00  3.3379595177623D-01  6.5985677848270D-01
   105  1.0400000000000D+00  2.8931590760938D-01  7.4559922466060D-01
   106  1.0500000000000D+00  2.4340443019019D-01  8.3871766563565D-01
   107  1.0600000000000D+00  1.9641514469828D-01  9.3789639501461D-01
   108  1.0700000000000D+00  1.4873731039370D-01  1.0416688663530D+00
   109  1.0800000000000D+00  1.0078954890955D-01  1.1484428609641D+00
   110  1.0900000000000D+00  5.3012909910125D-02  1.2565283750734D+00
   111  1.1000000000000D+00  5.8633986171523D-03  1.3641677232930D+00
   112  1.1100000000000D+00 -4.0195899845035D-02  1.4695673127943D+00
   113  1.1200000000000D+00 -8.4702954183444D-02  1.5709305011024D+00
   114  1.1300000000000D+00 -1.2720502789974D-01  1.6664909268399D+00
   115  1.1400000000000D+00 -1.6726687352937D-01  1.7545456898481D+00
   116  1.1500000000000D+00 -2.0447872569211D-01  1.8334877547465D+00
   117  1.1600000000000D+00 -2.3846393990979D-01  1.9018369574234D+00
   118  1.1700000000000D+00 -2.6888613057859D-01  1.9582690196663D+00
   119  1.1800000000000D+00 -2.9545567090347D-01  2.0016420150110D+00
   120  1.1900000000000D+00 -3.1793542480310D-01  2.0310197578285D+00
   121  1.2000000000000D+00 -3.3614559711575D-01  2.0456916534346D+00
   122  1.2100000000000D+00 -3.4996760452170D-01  2.0451886119423D+00
   123  1.2200000000000D+00 -3.5934688697296D-01  2.0292946987381D+00
   124  1.2300000000000D+00 -3.6429459282581D-01  1.9980542485776D+00
   125  1.2400000000000D+00 -3.6488810138154D-01  1.9517742936142D+00
   126  1.2500000000000D+00 -3.6127036584289D-01  1.8910222337583D+00
   127  1.2600000000000D+00 -3.5364806742407D-01  1.8166187089797D+00
   128  1.2700000000000D+00 -3.4228861528079D-01  1.7296258108809D+00
   129  1.2800000000000D+00 -3.2751603928928D-01  1.6313308209569D+00
   130  1.2900000000000D+00 -3.0970582920720D-01  1.5232256892244D+00
   131  1.3000000000000D+00 -2.8927882008972D-01  1.4069826545251D+00
   132  1.3100000000000D+00 -2.6669422648383D-01  1.2844264186210D+00
   133  1.3200000000000D+00 -2.4244193582528D-01  1.1575033181205D+00
   134  1.3300000000000D+00 -2.1703420996460D-01  1.0282480943480D+00
   135  1.3400000000000D+00 -1.9099693292081D-01  8.9874881747229D-01
   136  1.3500000000000D+00 -1.6486056081163D-01  7.7111059346814D-01
   137  1.3600000000000D+00 -1.3915093921629D-01  6.4741871791137D-01
   138  1.3700000000000D+00 -1.1438014868905D-01  5.2970194158950D-01
   139  1.3800000000000D+00 -9.1037541631945D-02  4.1989644495173D-01
   140  1.3900000000000D+00 -6.9581156617178D-02  3.1981150166477D-01
   141  1.4000000000000D+00 -5.0429562969973D-02  2.3109633334660D-01
   142  1.4100000000000D+00 -3.3965745504462D-02  1.5526210436083D-01
   143  1.4200000000000D+00 -2.0468515634648D-02  9.3374983136853D-02
   144  1.4300000000000D+00 -1.0176431245634D-02  4.6351034643852D-02
   145  1.4400000000000D+00 -3.5894730429503D-03  1.6330775479486D-02
   146  1.4500000000000D+00 -5.0631984688971D-04  2.3054217820443D-03
   147  1.4600000000000D+00  2.5739978655055D-04 -1.1651876898188D-03
   148  1.4700000000000D+00  3.8088983930339D-05 -1.7251066762599D-04
   149  1.4800000000000D+00 -8.1723970019008D-05  3.7065525313002D-04
   150  1.4900000000000D+00  3.4688292939974D-06 -1.5754903855358D-05
   151  1.5000000000000D+00  1.3259974861674D-05 -6.0233765341890D-05
   152  1.5100000000000D+00  3.9362417066849D-08 -1.8739692527367D-07
   153  1.5200000000000D+00  4.6273354084341D-08 -2.2029857218317D-07
   154  1.5300000000000D+00  0.0000000000000D+00  0.0000000000000D+00
   155  1.5400000000000D+00  0.0000000000000D+00  0.0000000000000D+00
   156  1.5500000000000D+00  0.0000000000000D+00  0.0000000000000D+00
   157  1.5600000000000D+00  0.0000000000000D+00  0.0000000000000D+00
   158  1.5700000000000D+00  0.0000000000000D+00  0.0000000000000D+00
   159  1.5800000000000D+00  0.0000000000000D+00  0.0000000000000D+00
   160  1.5900000000000D+00  0.0000000000000D+00  0.0000000000000D+00
   161  1.6000000000000D+00  0.0000000000000D+00  0.0000000000000D+00
   162  1.6100000000000D+00  0.0000000000000D+00  0.0000000000000D+00
   163  1.6200000000000D+00  0.0000000000000D+00  0.0000000000000D+00
   164  1.6300000000000D+00  0.0000000000000D+00  0.0000000000000D+00
   165  1.6400000000000D+00  0.0000000000000D+00  0.0000000000000D+00
   166  1.6500000000000D+00  0.0000000000000D+00  0.0000000000000D+00
   167  1.6600000000000D+00  0.0000000000000D+00  0.0000000000000D+00
   168  1.6700000000000D+00  0.0000000000000D+00  0.0000000000000D+00
   169  1.6800000000000D+00  0.0000000000000D+00  0.0000000000000D+00
   170  1.6900000000000D+00  0.0000000000000D+00  0.0000000000000D+00
   171  1.7000000000000D+00  0.0000000000000D+00  0.0000000000000D+00
   172  1.7100000000000D+00  0.0000000000000D+00  0.0000000000000D+00
   173  1.7200000000000D+00  0.0000000000000D+00  0.0000000000000D+00
   174  1.7300000000000D+00  0.0000000000000D+00  0.0000000000000D+00
   175  1.7400000000000D+00  0.0000000000000D+00  0.0000000000000D+00
   176  1.7500000000000D+00  0.0000000000000D+00  0.0000000000000D+00
   177  1.7600000000000D+00  0.0000000000000D+00  0.0000000000000D+00
   178  1.7700000000000D+00  0.0000000000000D+00  0.0000000000000D+00
   179  1.7800000000000D+00  0.0000000000000D+00  0.0000000000000D+00
   180  1.7900000000000D+00  0.0000000000000D+00  0.0000000000000D+00
   181  1.8000000000000D+00  0.0000000000000D+00  0.0000000000000D+00
   182  1.8100000000000D+00  0.0000000000000D+00  0.0000000000000D+00
   183  1.8200000000000D+00  0.0000000000000D+00  0.0000000000000D+00
   184  1.8300000000000D+00  0.0000000000000D+00  0.0000000000000D+00
   185  1.8400000000000D+00  0.0000000000000D+00  0.0000000000000D+00
   186  1.8500000000000D+00  0.0000000000000D+00  0.0000000000000D+00
   187  1.8600000000000D+00  0.0000000000000D+00  0.0000000000000D+00
   188  1.8700000000000D+00  0.0000000000000D+00  0.0000000000000D+00
   189  1.8800000000000D+00  0.0000000000000D+00  0.0000000000000D+00
   190  1.8900000000000D+00  0.0000000000000D+00  0.0000000000000D+00
   191  1.9000000000000D+00  0.0000000000000D+00  0.0000000000000D+00
   192  1.9100000000000D+00  0.0000000000000D+00  0.0000000000000D+00
   193  1.9200000000000D+00  0.0000000000000D+00  0.0000000000000D+00
   194  1.9300000000000D+00  0.0000000000000D+00  0.0000000000000D+00
   195  1.9400000000000D+00  0.0000000000000D+00  0.0000000000000D+00
   196  1.9500000000000D+00  0.0000000000000D+00  0.0000000000000D+00
   197  1.9600000000000D+00  0.0000000000000D+00  0.0000000000000D+00
   198  1.9700000000000D+00  0.0000000000000D+00  0.0000000000000D+00
   199  1.9800000000000D+00  0.0000000000000D+00  0.0000000000000D+00
   200  1.9900000000000D+00  0.0000000000000D+00  0.0000000000000D+00
   201  2.0000000000000D+00  0.0000000000000D+00  0.0000000000000D+00
   202  2.0100000000000D+00  0.0000000000000D+00  0.0000000000000D+00
   203  2.0200000000000D+00  0.0000000000000D+00  0.0000000000000D+00
   204  2.0300000000000D+00  0.0000000000000D+00  0.0000000000000D+00
   205  2.0400000000000D+00  0.0000000000000D+00  0.0000000000000D+00
   206  2.0500000000000D+00  0.0000000000000D+00  0.0000000000000D+00
   207  2.0600000000000D+00  0.0000000000000D+00  0.0000000000000D+00
   208  2.0700000000000D+00  0.0000000000000D+00  0.0000000000000D+00
   209  2.0800000000000D+00  0.0000000000000D+00  0.0000000000000D+00
   210  2.0900000000000D+00  0.0000000000000D+00  0.0000000000000D+00
   211  2.1000000000000D+00  0.0000000000000D+00  0.0000000000000D+00
   212  2.1100000000000D+00  0.0000000000000D+00  0.0000000000000D+00
   213  2.1200000000000D+00  0.0000000000000D+00  0.0000000000000D+00
   214  2.1300000000000D+00  0.0000000000000D+00  0.0000000000000D+00
   215  2.1400000000000D+00  0.0000000000000D+00  0.0000000000000D+00
   216  2.1500000000000D+00  0.0000000000000D+00  0.0000000000000D+00
   217  2.1600000000000D+00  0.0000000000000D+00  0.0000000000000D+00
   218  2.1700000000000D+00  0.0000000000000D+00  0.0000000000000D+00
   219  2.1800000000000D+00  0.0000000000000D+00  0.0000000000000D+00
   220  2.1900000000000D+00  0.0000000000000D+00  0.0000000000000D+00
   221  2.2000000000000D+00  0.0000000000000D+00  0.0000000000000D+00
   222  2.2100000000000D+00  0.0000000000000D+00  0.0000000000000D+00
   223  2.2200000000000D+00  0.0000000000000D+00  0.0000000000000D+00
   224  2.2300000000000D+00  0.0000000000000D+00  0.0000000000000D+00
   225  2.2400000000000D+00  0.0000000000000D+00  0.0000000000000D+00
   226  2.2500000000000D+00  0.0000000000000D+00  0.0000000000000D+00
   227  2.2600000000000D+00  0.0000000000000D+00  0.0000000000000D+00
   228  2.2700000000000D+00  0.0000000000000D+00  0.0000000000000D+00
   229  2.2800000000000D+00  0.0000000000000D+00  0.0000000000000D+00
   230  2.2900000000000D+00  0.0000000000000D+00  0.0000000000000D+00
   231  2.3000000000000D+00  0.0000000000000D+00  0.0000000000000D+00
   232  2.3100000000000D+00  0.0000000000000D+00  0.0000000000000D+00
   233  2.3200000000000D+00  0.0000000000000D+00  0.0000000000000D+00
   234  2.3300000000000D+00  0.0000000000000D+00  0.0000000000000D+00
   235  2.3400000000000D+00  0.0000000000000D+00  0.0000000000000D+00
   236  2.3500000000000D+00  0.0000000000000D+00  0.0000000000000D+00
   237  2.3600000000000D+00  0.0000000000000D+00  0.0000000000000D+00
   238  2.3700000000000D+00  0.0000000000000D+00  0.0000000000000D+00
   239  2.3800000000000D+00  0.0000000000000D+00  0.0000000000000D+00
   240  2.3900000000000D+00  0.0000000000000D+00  0.0000000000000D+00
   241  2.4000000000000D+00  0.0000000000000D+00  0.0000000000000D+00
   242  2.4100000000000D+00  0.0000000000000D+00  0.0000000000000D+00
   243  2.4200000000000D+00  0.0000000000000D+00  0.0000000000000D+00
   244  2.4300000000000D+00  0.0000000000000D+00  0.0000000000000D+00
   245  2.4400000000000D+00  0.0000000000000D+00  0.0000000000000D+00
   246  2.4500000000000D+00  0.0000000000000D+00  0.0000000000000D+00
   247  2.4600000000000D+00  0.0000000000000D+00  0.0000000000000D+00
   248  2.4700000000000D+00  0.0000000000000D+00  0.0000000000000D+00
   249  2.4800000000000D+00  0.0000000000000D+00  0.0000000000000D+00
   250  2.4900000000000D+00  0.0000000000000D+00  0.0000000000000D+00
   251  2.5000000000000D+00  0.0000000000000D+00  0.0000000000000D+00
   252  2.5100000000000D+00  0.0000000000000D+00  0.0000000000000D+00
   253  2.5200000000000D+00  0.0000000000000D+00  0.0000000000000D+00
   254  2.5300000000000D+00  0.0000000000000D+00  0.0000000000000D+00
   255  2.5400000000000D+00  0.0000000000000D+00  0.0000000000000D+00
   256  2.5500000000000D+00  0.0000000000000D+00  0.0000000000000D+00
   257  2.5600000000000D+00  0.0000000000000D+00  0.0000000000000D+00
   258  2.5700000000000D+00  0.0000000000000D+00  0.0000000000000D+00
   259  2.5800000000000D+00  0.0000000000000D+00  0.0000000000000D+00
   260  2.5900000000000D+00  0.0000000000000D+00  0.0000000000000D+00
   261  2.6000000000000D+00  0.0000000000000D+00  0.0000000000000D+00
   262  2.6100000000000D+00  0.0000000000000D+00  0.0000000000000D+00
   263  2.6200000000000D+00  0.0000000000000D+00  0.0000000000000D+00
   264  2.6300000000000D+00  0.0000000000000D+00  0.0000000000000D+00
   265  2.6400000000000D+00  0.0000000000000D+00  0.0000000000000D+00
   266  2.6500000000000D+00  0.0000000000000D+00  0.0000000000000D+00
   267  2.6600000000000D+00  0.0000000000000D+00  0.0000000000000D+00
   268  2.6700000000000D+00  0.0000000000000D+00  0.0000000000000D+00
   269  2.6800000000000D+00  0.0000000000000D+00  0.0000000000000D+00
   270  2.6900000000000D+00  0.0000000000000D+00  0.0000000000000D+00
   271  2.7000000000000D+00  0.0000000000000D+00  0.0000000000000D+00
   272  2.7100000000000D+00  0.0000000000000D+00  0.0000000000000D+00
   273  2.7200000000000D+00  0.0000000000000D+00  0.0000000000000D+00
   274  2.7300000000000D+00  0.0000000000000D+00  0.0000000000000D+00
   275  2.7400000000000D+00  0.0000000000000D+00  0.0000000000000D+00
   276  2.7500000000000D+00  0.0000000000000D+00  0.0000000000000D+00
   277  2.7600000000000D+00  0.0000000000000D+00  0.0000000000000D+00
   278  2.7700000000000D+00  0.0000000000000D+00  0.0000000000000D+00
   279  2.7800000000000D+00  0.0000000000000D+00  0.0000000000000D+00
   280  2.7900000000000D+00  0.0000000000000D+00  0.0000000000000D+00
   281  2.8000000000000D+00  0.0000000000000D+00  0.0000000000000D+00
   282  2.8100000000000D+00  0.0000000000000D+00  0.0000000000000D+00
   283  2.8200000000000D+00  0.0000000000000D+00  0.0000000000000D+00
   284  2.8300000000000D+00  0.0000000000000D+00  0.0000000000000D+00
   285  2.8400000000000D+00  0.0000000000000D+00  0.0000000000000D+00
   286  2.8500000000000D+00  0.0000000000000D+00  0.0000000000000D+00
   287  2.8600000000000D+00  0.0000000000000D+00  0.0000000000000D+00
   288  2.8700000000000D+00  0.0000000000000D+00  0.0000000000000D+00
   289  2.8800000000000D+00  0.0000000000000D+00  0.0000000000000D+00
   290  2.8900000000000D+00  0.0000000000000D+00  0.0000000000000D+00
   291  2.9000000000000D+00  0.0000000000000D+00  0.0000000000000D+00
   292  2.9100000000000D+00  0.0000000000000D+00  0.0000000000000D+00
   293  2.9200000000000D+00  0.0000000000000D+00  0.0000000000000D+00
   294  2.9300000000000D+00  0.0000000000000D+00  0.0000000000000D+00
   295  2.9400000000000D+00  0.0000000000000D+00  0.0000000000000D+00
   296  2.9500000000000D+00  0.0000000000000D+00  0.0000000000000D+00
   297  2.9600000000000D+00  0.0000000000000D+00  0.0000000000000D+00
   298  2.9700000000000D+00  0.0000000000000D+00  0.0000000000000D+00
   299  2.9800000000000D+00  0.0000000000000D+00  0.0000000000000D+00
   300  2.9900000000000D+00  0.0000000000000D+00  0.0000000000000D+00
   301  3.0000000000000D+00  0.0000000000000D+00  0.0000000000000D+00
   302  3.0100000000000D+00  0.0000000000000D+00  0.0000000000000D+00
   303  3.0200000000000D+00  0.0000000000000D+00  0.0000000000000D+00
   304  3.0300000000000D+00  0.0000000000000D+00  0.0000000000000D+00
   305  3.0400000000000D+00  0.0000000000000D+00  0.0000000000000D+00
   306  3.0500000000000D+00  0.0000000000000D+00  0.0000000000000D+00
   307  3.0600000000000D+00  0.0000000000000D+00  0.0000000000000D+00
   308  3.0700000000000D+00  0.0000000000000D+00  0.0000000000000D+00
   309  3.0800000000000D+00  0.0000000000000D+00  0.0000000000000D+00
   310  3.0900000000000D+00  0.0000000000000D+00  0.0000000000000D+00
   311  3.1000000000000D+00  0.0000000000000D+00  0.0000000000000D+00
   312  3.1100000000000D+00  0.0000000000000D+00  0.0000000000000D+00
   313  3.1200000000000D+00  0.0000000000000D+00  0.0000000000000D+00
   314  3.1300000000000D+00  0.0000000000000D+00  0.0000000000000D+00
   315  3.1400000000000D+00  0.0000000000000D+00  0.0000000000000D+00
   316  3.1500000000000D+00  0.0000000000000D+00  0.0000000000000D+00
   317  3.1600000000000D+00  0.0000000000000D+00  0.0000000000000D+00
   318  3.1700000000000D+00  0.0000000000000D+00  0.0000000000000D+00
   319  3.1800000000000D+00  0.0000000000000D+00  0.0000000000000D+00
   320  3.1900000000000D+00  0.0000000000000D+00  0.0000000000000D+00
   321  3.2000000000000D+00  0.0000000000000D+00  0.0000000000000D+00
   322  3.2100000000000D+00  0.0000000000000D+00  0.0000000000000D+00
   323  3.2200000000000D+00  0.0000000000000D+00  0.0000000000000D+00
   324  3.2300000000000D+00  0.0000000000000D+00  0.0000000000000D+00
   325  3.2400000000000D+00  0.0000000000000D+00  0.0000000000000D+00
   326  3.2500000000000D+00  0.0000000000000D+00  0.0000000000000D+00
   327  3.2600000000000D+00  0.0000000000000D+00  0.0000000000000D+00
   328  3.2700000000000D+00  0.0000000000000D+00  0.0000000000000D+00
   329  3.2800000000000D+00  0.0000000000000D+00  0.0000000000000D+00
   330  3.2900000000000D+00  0.0000000000000D+00  0.0000000000000D+00
   331  3.3000000000000D+00  0.0000000000000D+00  0.0000000000000D+00
   332  3.3100000000000D+00  0.0000000000000D+00  0.0000000000000D+00
   333  3.3200000000000D+00  0.0000000000000D+00  0.0000000000000D+00
   334  3.3300000000000D+00  0.0000000000000D+00  0.0000000000000D+00
   335  3.3400000000000D+00  0.0000000000000D+00  0.0000000000000D+00
   336  3.3500000000000D+00  0.0000000000000D+00  0.0000000000000D+00
   337  3.3600000000000D+00  0.0000000000000D+00  0.0000000000000D+00
   338  3.3700000000000D+00  0.0000000000000D+00  0.0000000000000D+00
   339  3.3800000000000D+00  0.0000000000000D+00  0.0000000000000D+00
   340  3.3900000000000D+00  0.0000000000000D+00  0.0000000000000D+00
   341  3.4000000000000D+00  0.0000000000000D+00  0.0000000000000D+00
   342  3.4100000000000D+00  0.0000000000000D+00  0.0000000000000D+00
   343  3.4200000000000D+00  0.0000000000000D+00  0.0000000000000D+00
   344  3.4300000000000D+00  0.0000000000000D+00  0.0000000000000D+00
   345  3.4400000000000D+00  0.0000000000000D+00  0.0000000000000D+00
   346  3.4500000000000D+00  0.0000000000000D+00  0.0000000000000D+00
   347  3.4600000000000D+00  0.0000000000000D+00  0.0000000000000D+00
   348  3.4700000000000D+00  0.0000000000000D+00  0.0000000000000D+00
   349  3.4800000000000D+00  0.0000000000000D+00  0.0000000000000D+00
   350  3.4900000000000D+00  0.0000000000000D+00  0.0000000000000D+00
   351  3.5000000000000D+00  0.0000000000000D+00  0.0000000000000D+00
   352  3.5100000000000D+00  0.0000000000000D+00  0.0000000000000D+00
   353  3.5200000000000D+00  0.0000000000000D+00  0.0000000000000D+00
   354  3.5300000000000D+00  0.0000000000000D+00  0.0000000000000D+00
   355  3.5400000000000D+00  0.0000000000000D+00  0.0000000000000D+00
   356  3.5500000000000D+00  0.0000000000000D+00  0.0000000000000D+00
   357  3.5600000000000D+00  0.0000000000000D+00  0.0000000000000D+00
   358  3.5700000000000D+00  0.0000000000000D+00  0.0000000000000D+00
   359  3.5800000000000D+00  0.0000000000000D+00  0.0000000000000D+00
   360  3.5900000000000D+00  0.0000000000000D+00  0.0000000000000D+00
   361  3.6000000000000D+00  0.0000000000000D+00  0.0000000000000D+00
   362  3.6100000000000D+00  0.0000000000000D+00  0.0000000000000D+00
   363  3.6200000000000D+00  0.0000000000000D+00  0.0000000000000D+00
   364  3.6300000000000D+00  0.0000000000000D+00  0.0000000000000D+00
   365  3.6400000000000D+00  0.0000000000000D+00  0.0000000000000D+00
   366  3.6500000000000D+00  0.0000000000000D+00  0.0000000000000D+00
   367  3.6600000000000D+00  0.0000000000000D+00  0.0000000000000D+00
   368  3.6700000000000D+00  0.0000000000000D+00  0.0000000000000D+00
   369  3.6800000000000D+00  0.0000000000000D+00  0.0000000000000D+00
   370  3.6900000000000D+00  0.0000000000000D+00  0.0000000000000D+00
   371  3.7000000000000D+00  0.0000000000000D+00  0.0000000000000D+00
   372  3.7100000000000D+00  0.0000000000000D+00  0.0000000000000D+00
   373  3.7200000000000D+00  0.0000000000000D+00  0.0000000000000D+00
   374  3.7300000000000D+00  0.0000000000000D+00  0.0000000000000D+00
   375  3.7400000000000D+00  0.0000000000000D+00  0.0000000000000D+00
   376  3.7500000000000D+00  0.0000000000000D+00  0.0000000000000D+00
   377  3.7600000000000D+00  0.0000000000000D+00  0.0000000000000D+00
   378  3.7700000000000D+00  0.0000000000000D+00  0.0000000000000D+00
   379  3.7800000000000D+00  0.0000000000000D+00  0.0000000000000D+00
   380  3.7900000000000D+00  0.0000000000000D+00  0.0000000000000D+00
   381  3.8000000000000D+00  0.0000000000000D+00  0.0000000000000D+00
   382  3.8100000000000D+00  0.0000000000000D+00  0.0000000000000D+00
   383  3.8200000000000D+00  0.0000000000000D+00  0.0000000000000D+00
   384  3.8300000000000D+00  0.0000000000000D+00  0.0000000000000D+00
   385  3.8400000000000D+00  0.0000000000000D+00  0.0000000000000D+00
   386  3.8500000000000D+00  0.0000000000000D+00  0.0000000000000D+00
   387  3.8600000000000D+00  0.0000000000000D+00  0.0000000000000D+00
   388  3.8700000000000D+00  0.0000000000000D+00  0.0000000000000D+00
   389  3.8800000000000D+00  0.0000000000000D+00  0.0000000000000D+00
   390  3.8900000000000D+00  0.0000000000000D+00  0.0000000000000D+00
   391  3.9000000000000D+00  0.0000000000000D+00  0.0000000000000D+00
   392  3.9100000000000D+00  0.0000000000000D+00  0.0000000000000D+00
   393  3.9200000000000D+00  0.0000000000000D+00  0.0000000000000D+00
   394  3.9300000000000D+00  0.0000000000000D+00  0.0000000000000D+00
   395  3.9400000000000D+00  0.0000000000000D+00  0.0000000000000D+00
   396  3.9500000000000D+00  0.0000000000000D+00  0.0000000000000D+00
   397  3.9600000000000D+00  0.0000000000000D+00  0.0000000000000D+00
   398  3.9700000000000D+00  0.0000000000000D+00  0.0000000000000D+00
   399  3.9800000000000D+00  0.0000000000000D+00  0.0000000000000D+00
   400  3.9900000000000D+00  0.0000000000000D+00  0.0000000000000D+00
   401  4.0000000000000D+00  0.0000000000000D+00  0.0000000000000D+00
   402  4.0100000000000D+00  0.0000000000000D+00  0.0000000000000D+00
   403  4.0200000000000D+00  0.0000000000000D+00  0.0000000000000D+00
   404  4.0300000000000D+00  0.0000000000000D+00  0.0000000000000D+00
   405  4.0400000000000D+00  0.0000000000000D+00  0.0000000000000D+00
   406  4.0500000000000D+00  0.0000000000000D+00  0.0000000000000D+00
   407  4.0600000000000D+00  0.0000000000000D+00  0.0000000000000D+00
   408  4.0700000000000D+00  0.0000000000000D+00  0.0000000000000D+00
   409  4.0800000000000D+00  0.0000000000000D+00  0.0000000000000D+00
   410  4.0900000000000D+00  0.0000000000000D+00  0.0000000000000D+00
   411  4.1000000000000D+00  0.0000000000000D+00  0.0000000000000D+00
   412  4.1100000000000D+00  0.0000000000000D+00  0.0000000000000D+00
   413  4.1200000000000D+00  0.0000000000000D+00  0.0000000000000D+00
   414  4.1300000000000D+00  0.0000000000000D+00  0.0000000000000D+00
   415  4.1400000000000D+00  0.0000000000000D+00  0.0000000000000D+00
   416  4.1500000000000D+00  0.0000000000000D+00  0.0000000000000D+00
   417  4.1600000000000D+00  0.0000000000000D+00  0.0000000000000D+00
   418  4.1700000000000D+00  0.0000000000000D+00  0.0000000000000D+00
   419  4.1800000000000D+00  0.0000000000000D+00  0.0000000000000D+00
   420  4.1900000000000D+00  0.0000000000000D+00  0.0000000000000D+00
   421  4.2000000000000D+00  0.0000000000000D+00  0.0000000000000D+00
   422  4.2100000000000D+00  0.0000000000000D+00  0.0000000000000D+00