Bi    ONCVPSP-3.3.0  r_core=   2.42776   2.51622   2.10397
     83.0000     15.0000      220408    zatom,zion,pspd
     8       2   2     4   600     0    pspcod,pspxc,lmax,lloc,mmax,r2well
  5.99000000  0.00000000  0.00000000    rchrg fchrg qchrg
     2     2     2     0     0    nproj
     1     1           extension_switch
   0                         6.0172573699504D+00  9.6453552845279D-01
     1  0.0000000000000D+00  1.4444140328251D-12 -3.8699737858749D-12
     2  1.0000000000000D-02  1.1016351707301D-02  1.3504004472925D-02
     3  2.0000000000000D-02  2.2054723797310D-02  2.6952753585843D-02
     4  3.0000000000000D-02  3.3137056950544D-02  4.0291174838551D-02
     5  4.0000000000000D-02  4.4285132642842D-02  5.3464560958458D-02
     6  5.0000000000000D-02  5.5520494041933D-02  6.6418751285331D-02
     7  6.0000000000000D-02  6.6864367501685D-02  7.9100311683880D-02
     8  7.0000000000000D-02  7.8337584851597D-02  9.1456712497928D-02
     9  8.0000000000000D-02  8.9960506677673D-02  1.0343650406378D-01
    10  9.0000000000000D-02  1.0175294678900D-01  1.1498948930523D-01
    11  1.0000000000000D-01  1.1373409806223D-01  1.2606689293836D-01
    12  1.1000000000000D-01  1.2592245985366D-01  1.3662152682110D-01
    13  1.2000000000000D-01  1.3833576716569D-01  1.4660795099024D-01
    14  1.3000000000000D-01  1.5099092175127D-01  1.5598262993707D-01
    15  1.4000000000000D-01  1.6390392533627D-01  1.6470408368281D-01
    16  1.5000000000000D-01  1.7708981513581D-01  1.7273303322525D-01
    17  1.6000000000000D-01  1.9056260183633D-01  1.8003253993983D-01
    18  1.7000000000000D-01  2.0433521021020D-01  1.8656813853084D-01
    19  1.8000000000000D-01  2.1841942252506D-01  1.9230796314204D-01
    20  1.9000000000000D-01  2.3282582490423D-01  1.9722286625014D-01
    21  2.0000000000000D-01  2.4756375678911D-01  2.0128652998057D-01
    22  2.1000000000000D-01  2.6264126364799D-01  2.0447556950073D-01
    23  2.2000000000000D-01  2.7806505306957D-01  2.0676962816358D-01
    24  2.3000000000000D-01  2.9384045437234D-01  2.0815146409266D-01
    25  2.4000000000000D-01  3.0997138185386D-01  2.0860702791860D-01
    26  2.5000000000000D-01  3.2646030179647D-01  2.0812553139722D-01
    27  2.6000000000000D-01  3.4330820333795D-01  2.0669950666063D-01
    28  2.7000000000000D-01  3.6051457330757D-01  2.0432485587391D-01
    29  2.8000000000000D-01  3.7807737511914D-01  2.0100089109314D-01
    30  2.9000000000000D-01  3.9599303180412D-01  1.9673036414358D-01
    31  3.0000000000000D-01  4.1425641325839D-01  1.9151948636124D-01
    32  3.1000000000000D-01  4.3286082776677D-01  1.8537793806598D-01
    33  3.2000000000000D-01  4.5179801785992D-01  1.7831886765982D-01
    34  3.3000000000000D-01  4.7105816054775D-01  1.7035888027066D-01
    35  3.4000000000000D-01  4.9062987196337D-01  1.6151801588834D-01
    36  3.5000000000000D-01  5.1050021644124D-01  1.5181971696769D-01
    37  3.6000000000000D-01  5.3065472004192D-01  1.4129078550111D-01
    38  3.7000000000000D-01  5.5107738852529D-01  1.2996132959176D-01
    39  3.8000000000000D-01  5.7175072976276D-01  1.1786469958726D-01
    40  3.9000000000000D-01  5.9265578056746D-01  1.0503741386333D-01
    41  4.0000000000000D-01  6.1377213791048D-01  9.1519074375739D-02
    42  4.1000000000000D-01  6.3507799447888D-01  7.7352272129239D-02
    43  4.2000000000000D-01  6.5655017852038D-01  6.2582482741537D-02
    44  4.3000000000000D-01  6.7816419790713D-01  4.7257952310407D-02
    45  4.4000000000000D-01  6.9989428833985D-01  3.1429573821819D-02
    46  4.5000000000000D-01  7.2171346560151D-01  1.5150754366631D-02
    47  4.6000000000000D-01  7.4359358175811D-01 -1.5227265371713D-03
    48  4.7000000000000D-01  7.6550538519259D-01 -1.8532867190470D-02
    49  4.8000000000000D-01  7.8741858434635D-01 -3.5819602172325D-02
    50  4.9000000000000D-01  8.0930191503124D-01 -5.3320968629489D-02
    51  5.0000000000000D-01  8.3112321116405D-01 -7.0973279985142D-02
    52  5.1000000000000D-01  8.5284947876427D-01 -8.8711306629230D-02
    53  5.2000000000000D-01  8.7444697304521D-01 -1.0646846312632D-01
    54  5.3000000000000D-01  8.9588127841805D-01 -1.2417700145170D-01
    55  5.4000000000000D-01  9.1711739121848D-01 -1.4176820974241D-01
    56  5.5000000000000D-01  9.3811980495543D-01 -1.5917261602623D-01
    57  5.6000000000000D-01  9.5885259787245D-01 -1.7632019637035D-01
    58  5.7000000000000D-01  9.7927952260299D-01 -1.9314058686997D-01
    59  5.8000000000000D-01  9.9936409769254D-01 -2.0956329887862D-01
    60  5.9000000000000D-01  1.0190697007528D+00 -2.2551793686361D-01
    61  6.0000000000000D-01  1.0383596630053D+00 -2.4093441825400D-01
    62  6.1000000000000D-01  1.0571973649650D+00 -2.5574319463420D-01
    63  6.2000000000000D-01  1.0755463330098D+00 -2.6987547362310D-01
    64  6.3000000000000D-01  1.0933703365723D+00 -2.8326344076812D-01
    65  6.4000000000000D-01  1.1106334856914D+00 -2.9584048077439D-01
    66  6.5000000000000D-01  1.1273003286510D+00 -3.0754139738230D-01
    67  6.6000000000000D-01  1.1433359494339D+00 -3.1830263120174D-01
    68  6.7000000000000D-01  1.1587060647140D+00 -3.2806247480861D-01
    69  6.8000000000000D-01  1.1733771201102D+00 -3.3676128440843D-01
    70  6.9000000000000D-01  1.1873163854215D+00 -3.4434168737375D-01
    71  7.0000000000000D-01  1.2004920485655D+00 -3.5074878496558D-01
    72  7.1000000000000D-01  1.2128733079409D+00 -3.5593034955562D-01
    73  7.2000000000000D-01  1.2244304629379D+00 -3.5983701567439D-01
    74  7.3000000000000D-01  1.2351350023213D+00 -3.6242246422132D-01
    75  7.4000000000000D-01  1.2449596902147D+00 -3.6364359918607D-01
    76  7.5000000000000D-01  1.2538786494200D+00 -3.6346071624603D-01
    77  7.6000000000000D-01  1.2618674418086D+00 -3.6183766262276D-01
    78  7.7000000000000D-01  1.2689031455290D+00 -3.5874198760064D-01
    79  7.8000000000000D-01  1.2749644287806D+00 -3.5414508313345D-01
    80  7.9000000000000D-01  1.2800316199136D+00 -3.4802231398952D-01
    81  8.0000000000000D-01  1.2840867736199D+00 -3.4035313691316D-01
    82  8.1000000000000D-01  1.2871137329933D+00 -3.3112120830956D-01
    83  8.2000000000000D-01  1.2890981872431D+00 -3.2031447999130D-01
    84  8.3000000000000D-01  1.2900277248622D+00 -3.0792528255858D-01
    85  8.4000000000000D-01  1.2898918820552D+00 -2.9395039602014D-01
    86  8.5000000000000D-01  1.2886821862516D+00 -2.7839110729930D-01
    87  8.6000000000000D-01  1.2863921945380D+00 -2.6125325430856D-01
    88  8.7000000000000D-01  1.2830175268594D+00 -2.4254725631655D-01
    89  8.8000000000000D-01  1.2785558938523D+00 -2.2228813037348D-01
    90  8.9000000000000D-01  1.2730071191916D+00 -2.0049549360462D-01
    91  9.0000000000000D-01  1.2663731563429D+00 -1.7719355122608D-01
    92  9.1000000000000D-01  1.2586580996353D+00 -1.5241107018307D-01
    93  9.2000000000000D-01  1.2498681895803D+00 -1.2618133835762D-01
    94  9.3000000000000D-01  1.2400118123842D+00 -9.8542109340400D-02
    95  9.4000000000000D-01  1.2290994936159D+00 -6.9535532809338D-02
    96  9.5000000000000D-01  1.2171438860121D+00 -3.9208070606885D-02
    97  9.6000000000000D-01  1.2041597514193D+00 -7.6103986562411D-03
    98  9.7000000000000D-01  1.1901639368885D+00  2.5202705093568D-02
    99  9.8000000000000D-01  1.1751753449614D+00  5.9172486455007D-02
   100  9.9000000000000D-01  1.1592148981998D+00  9.4236354234053D-02
   101  1.0000000000000D+00  1.1423054980332D+00  1.3032803257070D-01
   102  1.0100000000000D+00  1.1244719780150D+00  1.6737772600491D-01
   103  1.0200000000000D+00  1.1057410515971D+00  2.0531229683624D-01
   104  1.0300000000000D+00  1.0861412545514D+00  2.4405545430104D-01
   105  1.0400000000000D+00  1.0657028821824D+00  2.8352795504539D-01
   106  1.0500000000000D+00  1.0444579214953D+00  3.2364781432869D-01
   107  1.0600000000000D+00  1.0224399784984D+00  3.6433052735090D-01
   108  1.0700000000000D+00  9.9968420083698D-01  4.0548930005739D-01
   109  1.0800000000000D+00  9.7622719597073D-01  4.4703528873441D-01
   110  1.0900000000000D+00  9.5210694512329D-01  4.8887784767483D-01
   111  1.1000000000000D+00  9.2736271324625D-01  5.3092478415708D-01
   112  1.1100000000000D+00  9.0203495525405D-01  5.7308261995174D-01
   113  1.1200000000000D+00  8.7616521879983D-01  6.1525685853866D-01
   114  1.1300000000000D+00  8.4979604387475D-01  6.5735225719131D-01
   115  1.1400000000000D+00  8.2297085952475D-01  6.9927310306171D-01
   116  1.1500000000000D+00  7.9573387798864D-01  7.4092349237958D-01
   117  1.1600000000000D+00  7.6812998657151D-01  7.8220761186061D-01
   118  1.1700000000000D+00  7.4020463757649D-01  8.2303002140298D-01
   119  1.1800000000000D+00  7.1200373662496D-01  8.6329593714183D-01
   120  1.1900000000000D+00  6.8357352970065D-01  9.0291151392338D-01
   121  1.2000000000000D+00  6.5496048926039D-01  9.4178412625295D-01
   122  1.2100000000000D+00  6.2621119975704D-01  9.7982264677233D-01
   123  1.2200000000000D+00  5.9737224292302D-01  1.0169377213246D+00
   124  1.2300000000000D+00  5.6849008316517D-01  1.0530420396657D+00
   125  1.2400000000000D+00  5.3961095342239D-01  1.0880506008942D+00
   126  1.2500000000000D+00  5.1078074183478D-01  1.1218809726895D+00
   127  1.2600000000000D+00  4.8204487957493D-01  1.1544535434462D+00
   128  1.2700000000000D+00  4.5344823018553D-01  1.1856917664300D+00
   129  1.2800000000000D+00  4.2503498076199D-01  1.2155223951048D+00
   130  1.2900000000000D+00  3.9684853532010D-01  1.2438757087787D+00
   131  1.3000000000000D+00  3.6893141067440D-01  1.2706857277777D+00
   132  1.3100000000000D+00  3.4132513514427D-01  1.2958904173903D+00
   133  1.3200000000000D+00  3.1407015040878D-01  1.3194318798083D+00
   134  1.3300000000000D+00  2.8720571680323D-01  1.3412565334035D+00
   135  1.3400000000000D+00  2.6076982234678D-01  1.3613152786792D+00
   136  1.3500000000000D+00  2.3479909579043D-01  1.3795636502490D+00
   137  1.3600000000000D+00  2.0932872393365D-01  1.3959619543295D+00
   138  1.3700000000000D+00  1.8439237347038D-01  1.4104753911943D+00
   139  1.3800000000000D+00  1.6002211760317D-01  1.4230741621098D+00
   140  1.3900000000000D+00  1.3624836762297D-01  1.4337335604086D+00
   141  1.4000000000000D+00  1.1309980968951D-01  1.4424340462349D+00
   142  1.4100000000000D+00  9.0603346968030D-02  1.4491613047518D+00
   143  1.4200000000000D+00  6.8784047297878D-02  1.4539062875338D+00
   144  1.4300000000000D+00  4.7665096558713D-02  1.4566652369023D+00
   145  1.4400000000000D+00  2.7267757819483D-02  1.4574396932086D+00
   146  1.4500000000000D+00  7.6113364354279D-03  1.4562364848243D+00
   147  1.4600000000000D+00 -1.1286848870095D-02  1.4530677009891D+00
   148  1.4700000000000D+00 -2.9411488842764D-02  1.4479506474832D+00
   149  1.4800000000000D+00 -4.6749300400579D-02  1.4409077852283D+00
   150  1.4900000000000D+00 -6.3289037218624D-02  1.4319666521099D+00
   151  1.5000000000000D+00 -7.9021494116443D-02  1.4211597680501D+00
   152  1.5100000000000D+00 -9.3939505355128D-02  1.4085245238874D+00
   153  1.5200000000000D+00 -1.0803793678666D-01  1.3941030541547D+00
   154  1.5300000000000D+00 -1.2131367199062D-01  1.3779420943875D+00
   155  1.5400000000000D+00 -1.3376559242306D-01  1.3600928232839D+00
   156  1.5500000000000D+00 -1.4539455169421D-01  1.3406106902991D+00
   157  1.5600000000000D+00 -1.5620334410480D-01  1.3195552292751D+00
   158  1.5700000000000D+00 -1.6619666753067D-01  1.2969898586216D+00
   159  1.5800000000000D+00 -1.7538108088595D-01  1.2729816689075D+00
   160  1.5900000000000D+00 -1.8376495623238D-01  1.2476011983264D+00
   161  1.6000000000000D+00 -1.9135842585220D-01  1.2209221971091D+00
   162  1.6100000000000D+00 -1.9817332434513D-01  1.1930213813389D+00
   163  1.6200000000000D+00 -2.0422312612064D-01  1.1639781773589D+00
   164  1.6300000000000D+00 -2.0952287837715D-01  1.1338744573157D+00
   165  1.6400000000000D+00 -2.1408912994986D-01  1.1027942670347D+00
   166  1.6500000000000D+00 -2.1793985617141D-01  1.0708235469050D+00
   167  1.6600000000000D+00 -2.2109438012435D-01  1.0380498469420D+00
   168  1.6700000000000D+00 -2.2357329047774D-01  1.0045620368241D+00
   169  1.6800000000000D+00 -2.2539835628414D-01  9.7045001203786D-01
   170  1.6900000000000D+00 -2.2659243896770D-01  9.3580439702146D-01
   171  1.7000000000000D+00 -2.2717940187710D-01  9.0071624640228D-01
   172  1.7100000000000D+00 -2.2718401766423D-01  8.6527674529103D-01
   173  1.7200000000000D+00 -2.2663187385698D-01  8.2957690967034D-01
   174  1.7300000000000D+00 -2.2554927691257D-01  7.9370728791179D-01
   175  1.7400000000000D+00 -2.2396315510638D-01  7.5775766436148D-01
   176  1.7500000000000D+00 -2.2190096057034D-01  7.2181676612028D-01
   177  1.7600000000000D+00 -2.1939057080608D-01  6.8597197379546D-01
   178  1.7700000000000D+00 -2.1646019002569D-01  6.5030903749305D-01
   179  1.7800000000000D+00 -2.1313825059017D-01  6.1491179856933D-01
   180  1.7900000000000D+00 -2.0945331495556D-01  5.7986191862334D-01
   181  1.8000000000000D+00 -2.0543397831582D-01  5.4523861591213D-01
   182  1.8100000000000D+00 -2.0110877241535D-01  5.1111841087683D-01
   183  1.8200000000000D+00 -1.9650607064555D-01  4.7757488070039D-01
   184  1.8300000000000D+00 -1.9165399492062D-01  4.4467842458751D-01
   185  1.8400000000000D+00 -1.8658032442252D-01  4.1249603966409D-01
   186  1.8500000000000D+00 -1.8131240666520D-01  3.8109110891911D-01
   187  1.8600000000000D+00 -1.7587707100970D-01  3.5052320131226D-01
   188  1.8700000000000D+00 -1.7030054495233D-01  3.2084788491515D-01
   189  1.8800000000000D+00 -1.6460837344463D-01  2.9211655372807D-01
   190  1.8900000000000D+00 -1.5882534133977D-01  2.6437626815929D-01
   191  1.9000000000000D+00 -1.5297539944790D-01  2.3766961063803D-01
   192  1.9100000000000D+00 -1.4708159397668D-01  2.1203455519530D-01
   193  1.9200000000000D+00 -1.4116600008410D-01  1.8750435333388D-01
   194  1.9300000000000D+00 -1.3524965912608D-01  1.6410743437185D-01
   195  1.9400000000000D+00 -1.2935251972198D-01  1.4186732001313D-01
   196  1.9500000000000D+00 -1.2349338525289D-01  1.2080256405552D-01
   197  1.9600000000000D+00 -1.1768986218085D-01  1.0092669331719D-01
   198  1.9700000000000D+00 -1.1195830969951D-01  8.2248151219161D-02
   199  1.9800000000000D+00 -1.0631382615670D-01  6.4770388058457D-02
   200  1.9900000000000D+00 -1.0077018651180D-01  4.8491757818344D-02
   201  2.0000000000000D+00 -9.5339754923270D-02  3.3405282068188D-02
   202  2.0100000000000D+00 -9.0033560089031D-02  1.9499113418268D-02
   203  2.0200000000000D+00 -8.4861356808883D-02  6.7569408510895D-03
   204  2.0300000000000D+00 -7.9831695521174D-02 -4.8416024822782D-03
   205  2.0400000000000D+00 -7.4951994082683D-02 -1.5320583648251D-02
   206  2.0500000000000D+00 -7.0228710524178D-02 -2.4706974074858D-02
   207  2.0600000000000D+00 -6.5667292778783D-02 -3.3030813017658D-02
   208  2.0700000000000D+00 -6.1272205568395D-02 -4.0325066710573D-02
   209  2.0800000000000D+00 -5.7046963507464D-02 -4.6625452780808D-02
   210  2.0900000000000D+00 -5.2994179948695D-02 -5.1970195195516D-02
   211  2.1000000000000D+00 -4.9115596028247D-02 -5.6399876143307D-02
   212  2.1100000000000D+00 -4.5412126339322D-02 -5.9957217204592D-02
   213  2.1200000000000D+00 -4.1883901300444D-02 -6.2686878870960D-02
   214  2.1300000000000D+00 -3.8530312704485D-02 -6.4635249800831D-02
   215  2.1400000000000D+00 -3.5350061101608D-02 -6.5850231476858D-02
   216  2.1500000000000D+00 -3.2341204668397D-02 -6.6381019393838D-02
   217  2.1600000000000D+00 -2.9501209529240D-02 -6.6277881109186D-02
   218  2.1700000000000D+00 -2.6827001102005D-02 -6.5591932436730D-02
   219  2.1800000000000D+00 -2.4315016310481D-02 -6.4374912473756D-02
   220  2.1900000000000D+00 -2.1961256397580D-02 -6.2678958381657D-02
   221  2.2000000000000D+00 -1.9761340126554D-02 -6.0556380546593D-02
   222  2.2100000000000D+00 -1.7710557016479D-02 -5.8059439526582D-02
   223  2.2200000000000D+00 -1.5803920503534D-02 -5.5240125005135D-02
   224  2.2300000000000D+00 -1.4036220733189D-02 -5.2149937825896D-02
   225  2.2400000000000D+00 -1.2402076605237D-02 -4.8839676462918D-02
   226  2.2500000000000D+00 -1.0895987170892D-02 -4.5359227471539D-02
   227  2.2600000000000D+00 -9.5123817680874D-03 -4.1757362131731D-02
   228  2.2700000000000D+00 -8.2456688166101D-03 -3.8081539510412D-02
   229  2.2800000000000D+00 -7.0902834141896D-03 -3.4377715410015D-02
   230  2.2900000000000D+00 -6.0407327023533D-03 -3.0690160838007D-02
   231  2.3000000000000D+00 -5.0916396341709D-03 -2.7061287730206D-02
   232  2.3100000000000D+00 -4.2377846643045D-03 -2.3531483601961D-02
   233  2.3200000000000D+00 -3.4741447157757D-03 -2.0138957357657D-02
   234  2.3300000000000D+00 -2.7959301695485D-03 -1.6919593648742D-02
   235  2.3400000000000D+00 -2.1986189527833D-03 -1.3906818970771D-02
   236  2.3500000000000D+00 -1.6781660685619D-03 -1.1134280529318D-02
   237  2.3600000000000D+00 -1.2303834325968D-03 -8.6255486843397D-03
   238  2.3700000000000D+00 -8.5155166517939D-04 -6.4032271701487D-03
   239  2.3800000000000D+00 -5.3837950663713D-04 -4.4765757527471D-03
   240  2.3900000000000D+00 -2.8899603813920D-04 -2.9010146368536D-03
   241  2.4000000000000D+00 -1.0131270677689D-04 -1.7099011271702D-03
   242  2.4100000000000D+00  2.8469918450461D-05 -9.2270595489033D-04
   243  2.4200000000000D+00  9.9290223509867D-05 -4.4869557610496D-04
   244  2.4300000000000D+00  1.1399488710781D-04 -1.9460555500804D-04
   245  2.4400000000000D+00  8.0778250179842D-05 -6.3136026209926D-05
   246  2.4500000000000D+00  3.1066799016720D-05 -1.1404623659796D-05
   247  2.4600000000000D+00 -7.0752839372540D-06  1.4962346091825D-06
   248  2.4700000000000D+00 -1.5954402071791D-05  6.6343760066527D-07
   249  2.4800000000000D+00 -8.4790004343092D-06 -6.4203756259914D-07
   250  2.4900000000000D+00  1.5330358694592D-06 -6.8212275018537D-07
   251  2.5000000000000D+00  3.4502271482043D-06 -1.3043183886080D-06
   252  2.5100000000000D+00  1.9300367556678D-06 -6.2456504684289D-07
   253  2.5200000000000D+00 -1.4483410726078D-07  2.9877055886360D-07
   254  2.5300000000000D+00 -3.2983851528935D-07  6.8040628973051D-07
   255  2.5400000000000D+00 -1.9362361592093D-07  3.9941583534412D-07
   256  2.5500000000000D+00  0.0000000000000D+00  0.0000000000000D+00
   257  2.5600000000000D+00  0.0000000000000D+00  0.0000000000000D+00
   258  2.5700000000000D+00  0.0000000000000D+00  0.0000000000000D+00
   259  2.5800000000000D+00  0.0000000000000D+00  0.0000000000000D+00
   260  2.5900000000000D+00  0.0000000000000D+00  0.0000000000000D+00
   261  2.6000000000000D+00  0.0000000000000D+00  0.0000000000000D+00
   262  2.6100000000000D+00  0.0000000000000D+00  0.0000000000000D+00
   263  2.6200000000000D+00  0.0000000000000D+00  0.0000000000000D+00
   264  2.6300000000000D+00  0.0000000000000D+00  0.0000000000000D+00
   265  2.6400000000000D+00  0.0000000000000D+00  0.0000000000000D+00
   266  2.6500000000000D+00  0.0000000000000D+00  0.0000000000000D+00
   267  2.6600000000000D+00  0.0000000000000D+00  0.0000000000000D+00
   268  2.6700000000000D+00  0.0000000000000D+00  0.0000000000000D+00
   269  2.6800000000000D+00  0.0000000000000D+00  0.0000000000000D+00
   270  2.6900000000000D+00  0.0000000000000D+00  0.0000000000000D+00
   271  2.7000000000000D+00  0.0000000000000D+00  0.0000000000000D+00
   272  2.7100000000000D+00  0.0000000000000D+00  0.0000000000000D+00
   273  2.7200000000000D+00  0.0000000000000D+00  0.0000000000000D+00
   274  2.7300000000000D+00  0.0000000000000D+00  0.0000000000000D+00
   275  2.7400000000000D+00  0.0000000000000D+00  0.0000000000000D+00
   276  2.7500000000000D+00  0.0000000000000D+00  0.0000000000000D+00
   277  2.7600000000000D+00  0.0000000000000D+00  0.0000000000000D+00
   278  2.7700000000000D+00  0.0000000000000D+00  0.0000000000000D+00
   279  2.7800000000000D+00  0.0000000000000D+00  0.0000000000000D+00
   280  2.7900000000000D+00  0.0000000000000D+00  0.0000000000000D+00
   281  2.8000000000000D+00  0.0000000000000D+00  0.0000000000000D+00
   282  2.8100000000000D+00  0.0000000000000D+00  0.0000000000000D+00
   283  2.8200000000000D+00  0.0000000000000D+00  0.0000000000000D+00
   284  2.8300000000000D+00  0.0000000000000D+00  0.0000000000000D+00
   285  2.8400000000000D+00  0.0000000000000D+00  0.0000000000000D+00
   286  2.8500000000000D+00  0.0000000000000D+00  0.0000000000000D+00
   287  2.8600000000000D+00  0.0000000000000D+00  0.0000000000000D+00
   288  2.8700000000000D+00  0.0000000000000D+00  0.0000000000000D+00
   289  2.8800000000000D+00  0.0000000000000D+00  0.0000000000000D+00
   290  2.8900000000000D+00  0.0000000000000D+00  0.0000000000000D+00
   291  2.9000000000000D+00  0.0000000000000D+00  0.0000000000000D+00
   292  2.9100000000000D+00  0.0000000000000D+00  0.0000000000000D+00
   293  2.9200000000000D+00  0.0000000000000D+00  0.0000000000000D+00
   294  2.9300000000000D+00  0.0000000000000D+00  0.0000000000000D+00
   295  2.9400000000000D+00  0.0000000000000D+00  0.0000000000000D+00
   296  2.9500000000000D+00  0.0000000000000D+00  0.0000000000000D+00
   297  2.9600000000000D+00  0.0000000000000D+00  0.0000000000000D+00
   298  2.9700000000000D+00  0.0000000000000D+00  0.0000000000000D+00
   299  2.9800000000000D+00  0.0000000000000D+00  0.0000000000000D+00
   300  2.9900000000000D+00  0.0000000000000D+00  0.0000000000000D+00
   301  3.0000000000000D+00  0.0000000000000D+00  0.0000000000000D+00
   302  3.0100000000000D+00  0.0000000000000D+00  0.0000000000000D+00
   303  3.0200000000000D+00  0.0000000000000D+00  0.0000000000000D+00
   304  3.0300000000000D+00  0.0000000000000D+00  0.0000000000000D+00
   305  3.0400000000000D+00  0.0000000000000D+00  0.0000000000000D+00
   306  3.0500000000000D+00  0.0000000000000D+00  0.0000000000000D+00
   307  3.0600000000000D+00  0.0000000000000D+00  0.0000000000000D+00
   308  3.0700000000000D+00  0.0000000000000D+00  0.0000000000000D+00
   309  3.0800000000000D+00  0.0000000000000D+00  0.0000000000000D+00
   310  3.0900000000000D+00  0.0000000000000D+00  0.0000000000000D+00
   311  3.1000000000000D+00  0.0000000000000D+00  0.0000000000000D+00
   312  3.1100000000000D+00  0.0000000000000D+00  0.0000000000000D+00
   313  3.1200000000000D+00  0.0000000000000D+00  0.0000000000000D+00
   314  3.1300000000000D+00  0.0000000000000D+00  0.0000000000000D+00
   315  3.1400000000000D+00  0.0000000000000D+00  0.0000000000000D+00
   316  3.1500000000000D+00  0.0000000000000D+00  0.0000000000000D+00
   317  3.1600000000000D+00  0.0000000000000D+00  0.0000000000000D+00
   318  3.1700000000000D+00  0.0000000000000D+00  0.0000000000000D+00
   319  3.1800000000000D+00  0.0000000000000D+00  0.0000000000000D+00
   320  3.1900000000000D+00  0.0000000000000D+00  0.0000000000000D+00
   321  3.2000000000000D+00  0.0000000000000D+00  0.0000000000000D+00
   322  3.2100000000000D+00  0.0000000000000D+00  0.0000000000000D+00
   323  3.2200000000000D+00  0.0000000000000D+00  0.0000000000000D+00
   324  3.2300000000000D+00  0.0000000000000D+00  0.0000000000000D+00
   325  3.2400000000000D+00  0.0000000000000D+00  0.0000000000000D+00
   326  3.2500000000000D+00  0.0000000000000D+00  0.0000000000000D+00
   327  3.2600000000000D+00  0.0000000000000D+00  0.0000000000000D+00
   328  3.2700000000000D+00  0.0000000000000D+00  0.0000000000000D+00
   329  3.2800000000000D+00  0.0000000000000D+00  0.0000000000000D+00
   330  3.2900000000000D+00  0.0000000000000D+00  0.0000000000000D+00
   331  3.3000000000000D+00  0.0000000000000D+00  0.0000000000000D+00
   332  3.3100000000000D+00  0.0000000000000D+00  0.0000000000000D+00
   333  3.3200000000000D+00  0.0000000000000D+00  0.0000000000000D+00
   334  3.3300000000000D+00  0.0000000000000D+00  0.0000000000000D+00
   335  3.3400000000000D+00  0.0000000000000D+00  0.0000000000000D+00
   336  3.3500000000000D+00  0.0000000000000D+00  0.0000000000000D+00
   337  3.3600000000000D+00  0.0000000000000D+00  0.0000000000000D+00
   338  3.3700000000000D+00  0.0000000000000D+00  0.0000000000000D+00
   339  3.3800000000000D+00  0.0000000000000D+00  0.0000000000000D+00
   340  3.3900000000000D+00  0.0000000000000D+00  0.0000000000000D+00
   341  3.4000000000000D+00  0.0000000000000D+00  0.0000000000000D+00
   342  3.4100000000000D+00  0.0000000000000D+00  0.0000000000000D+00
   343  3.4200000000000D+00  0.0000000000000D+00  0.0000000000000D+00
   344  3.4300000000000D+00  0.0000000000000D+00  0.0000000000000D+00
   345  3.4400000000000D+00  0.0000000000000D+00  0.0000000000000D+00
   346  3.4500000000000D+00  0.0000000000000D+00  0.0000000000000D+00
   347  3.4600000000000D+00  0.0000000000000D+00  0.0000000000000D+00
   348  3.4700000000000D+00  0.0000000000000D+00  0.0000000000000D+00
   349  3.4800000000000D+00  0.0000000000000D+00  0.0000000000000D+00
   350  3.4900000000000D+00  0.0000000000000D+00  0.0000000000000D+00
   351  3.5000000000000D+00  0.0000000000000D+00  0.0000000000000D+00
   352  3.5100000000000D+00  0.0000000000000D+00  0.0000000000000D+00
   353  3.5200000000000D+00  0.0000000000000D+00  0.0000000000000D+00
   354  3.5300000000000D+00  0.0000000000000D+00  0.0000000000000D+00
   355  3.5400000000000D+00  0.0000000000000D+00  0.0000000000000D+00
   356  3.5500000000000D+00  0.0000000000000D+00  0.0000000000000D+00
   357  3.5600000000000D+00  0.0000000000000D+00  0.0000000000000D+00
   358  3.5700000000000D+00  0.0000000000000D+00  0.0000000000000D+00
   359  3.5800000000000D+00  0.0000000000000D+00  0.0000000000000D+00
   360  3.5900000000000D+00  0.0000000000000D+00  0.0000000000000D+00
   361  3.6000000000000D+00  0.0000000000000D+00  0.0000000000000D+00
   362  3.6100000000000D+00  0.0000000000000D+00  0.0000000000000D+00
   363  3.6200000000000D+00  0.0000000000000D+00  0.0000000000000D+00
   364  3.6300000000000D+00  0.0000000000000D+00  0.0000000000000D+00
   365  3.6400000000000D+00  0.0000000000000D+00  0.0000000000000D+00
   366  3.6500000000000D+00  0.0000000000000D+00  0.0000000000000D+00
   367  3.6600000000000D+00  0.0000000000000D+00  0.0000000000000D+00
   368  3.6700000000000D+00  0.0000000000000D+00  0.0000000000000D+00
   369  3.6800000000000D+00  0.0000000000000D+00  0.0000000000000D+00
   370  3.6900000000000D+00  0.0000000000000D+00  0.0000000000000D+00
   371  3.7000000000000D+00  0.0000000000000D+00  0.0000000000000D+00
   372  3.7100000000000D+00  0.0000000000000D+00  0.0000000000000D+00
   373  3.7200000000000D+00  0.0000000000000D+00  0.0000000000000D+00
   374  3.7300000000000D+00  0.0000000000000D+00  0.0000000000000D+00
   375  3.7400000000000D+00  0.0000000000000D+00  0.0000000000000D+00
   376  3.7500000000000D+00  0.0000000000000D+00  0.0000000000000D+00
   377  3.7600000000000D+00  0.0000000000000D+00  0.0000000000000D+00
   378  3.7700000000000D+00  0.0000000000000D+00  0.0000000000000D+00
   379  3.7800000000000D+00  0.0000000000000D+00  0.0000000000000D+00
   380  3.7900000000000D+00  0.0000000000000D+00  0.0000000000000D+00
   381  3.8000000000000D+00  0.0000000000000D+00  0.0000000000000D+00
   382  3.8100000000000D+00  0.0000000000000D+00  0.0000000000000D+00
   383  3.8200000000000D+00  0.0000000000000D+00  0.0000000000000D+00
   384  3.8300000000000D+00  0.0000000000000D+00  0.0000000000000D+00
   385  3.8400000000000D+00  0.0000000000000D+00  0.0000000000000D+00
   386  3.8500000000000D+00  0.0000000000000D+00  0.0000000000000D+00
   387  3.8600000000000D+00  0.0000000000000D+00  0.0000000000000D+00
   388  3.8700000000000D+00  0.0000000000000D+00  0.0000000000000D+00
   389  3.8800000000000D+00  0.0000000000000D+00  0.0000000000000D+00
   390  3.8900000000000D+00  0.0000000000000D+00  0.0000000000000D+00
   391  3.9000000000000D+00  0.0000000000000D+00  0.0000000000000D+00
   392  3.9100000000000D+00  0.0000000000000D+00  0.0000000000000D+00
   393  3.9200000000000D+00  0.0000000000000D+00  0.0000000000000D+00
   394  3.9300000000000D+00  0.0000000000000D+00  0.0000000000000D+00
   395  3.9400000000000D+00  0.0000000000000D+00  0.0000000000000D+00
   396  3.9500000000000D+00  0.0000000000000D+00  0.0000000000000D+00
   397  3.9600000000000D+00  0.0000000000000D+00  0.0000000000000D+00
   398  3.9700000000000D+00  0.0000000000000D+00  0.0000000000000D+00
   399  3.9800000000000D+00  0.0000000000000D+00  0.0000000000000D+00
   400  3.9900000000000D+00  0.0000000000000D+00  0.0000000000000D+00
   401  4.0000000000000D+00  0.0000000000000D+00  0.0000000000000D+00
   402  4.0100000000000D+00  0.0000000000000D+00  0.0000000000000D+00
   403  4.0200000000000D+00  0.0000000000000D+00  0.0000000000000D+00
   404  4.0300000000000D+00  0.0000000000000D+00  0.0000000000000D+00
   405  4.0400000000000D+00  0.0000000000000D+00  0.0000000000000D+00
   406  4.0500000000000D+00  0.0000000000000D+00  0.0000000000000D+00
   407  4.0600000000000D+00  0.0000000000000D+00  0.0000000000000D+00
   408  4.0700000000000D+00  0.0000000000000D+00  0.0000000000000D+00
   409  4.0800000000000D+00  0.0000000000000D+00  0.0000000000000D+00
   410  4.0900000000000D+00  0.0000000000000D+00  0.0000000000000D+00
   411  4.1000000000000D+00  0.0000000000000D+00  0.0000000000000D+00
   412  4.1100000000000D+00  0.0000000000000D+00  0.0000000000000D+00
   413  4.1200000000000D+00  0.0000000000000D+00  0.0000000000000D+00
   414  4.1300000000000D+00  0.0000000000000D+00  0.0000000000000D+00
   415  4.1400000000000D+00  0.0000000000000D+00  0.0000000000000D+00
   416  4.1500000000000D+00  0.0000000000000D+00  0.0000000000000D+00
   417  4.1600000000000D+00  0.0000000000000D+00  0.0000000000000D+00
   418  4.1700000000000D+00  0.0000000000000D+00  0.0000000000000D+00
   419  4.1800000000000D+00  0.0000000000000D+00  0.0000000000000D+00
   420  4.1900000000000D+00  0.0000000000000D+00  0.0000000000000D+00
   421  4.2000000000000D+00  0.0000000000000D+00  0.0000000000000D+00
   422  4.2100000000000D+00  0.0000000000000D+00  0.0000000000000D+00