Bi    ONCVPSP-3.3.0  r_core=   1.40250   1.50656   1.40250
     83.0000     23.0000      220408    zatom,zion,pspd
     8       2   2     4   600     0    pspcod,pspxc,lmax,lloc,mmax,r2well
  5.99000000  0.00000000  0.00000000    rchrg fchrg qchrg
     2     2     2     0     0    nproj
     1     1           extension_switch
   0                         1.7363093151772D+01  2.3688396584431D+00
     1  0.0000000000000D+00 -8.7584517416417D-10  2.1673072780892D-09
     2  1.0000000000000D-02  8.6734601329585D-02 -2.1973082608372D-02
     3  2.0000000000000D-02  1.7320928960113D-01 -4.3688640732822D-02
     4  3.0000000000000D-02  2.5916552010081D-01 -6.4891730883995D-02
     5  4.0000000000000D-02  3.4434746983058D-01 -8.5332535371018D-02
     6  5.0000000000000D-02  4.2850336116226D-01 -1.0476883528693D-01
     7  6.0000000000000D-02  5.1138674148069D-01 -1.2296837716510D-01
     8  7.0000000000000D-02  5.9275770519185D-01 -1.3971110045075D-01
     9  8.0000000000000D-02  6.7238404534726D-01 -1.5479119509900D-01
    10  9.0000000000000D-02  7.5004232320540D-01 -1.6801896125768D-01
    11  1.0000000000000D-01  8.2551884529694D-01 -1.7922244607969D-01
    12  1.1000000000000D-01  8.9861053896401D-01 -1.8824883618865D-01
    13  1.2000000000000D-01  9.6912571888345D-01 -1.9496558814032D-01
    14  1.3000000000000D-01  1.0368847387351D+00 -1.9926128332214D-01
    15  1.4000000000000D-01  1.1017205239133D+00 -2.0104619805125D-01
    16  1.5000000000000D-01  1.1634789829760D+00 -2.0025258410128D-01
    17  1.6000000000000D-01  1.2220192973519D+00 -1.9683465944012D-01
    18  1.7000000000000D-01  1.2772140906536D+00 -1.9076831352485D-01
    19  1.8000000000000D-01  1.3289494807442D+00 -1.8205053600277D-01
    20  1.9000000000000D-01  1.3771250194484D+00 -1.7069858204029D-01
    21  2.0000000000000D-01  1.4216535264543D+00 -1.5674889167152D-01
    22  2.1000000000000D-01  1.4624608254995D+00 -1.4025578446142D-01
    23  2.2000000000000D-01  1.4994853923397D+00 -1.2128995434843D-01
    24  2.3000000000000D-01  1.5326779252429D+00 -9.9936792711053D-02
    25  2.4000000000000D-01  1.5620008498114D+00 -7.6294570436818D-02
    26  2.5000000000000D-01  1.5874277707963D+00 -5.0472512014532D-02
    27  2.6000000000000D-01  1.6089428842027D+00 -2.2588796380263D-02
    28  2.7000000000000D-01  1.6265403633987D+00  7.2314796074495D-03
    29  2.8000000000000D-01  1.6402237331082D+00  3.8858338631139D-02
    30  2.9000000000000D-01  1.6500052450919D+00  7.2158924932078D-02
    31  3.0000000000000D-01  1.6559052690006D+00  1.0699943515371D-01
    32  3.1000000000000D-01  1.6579517113188D+00  1.4324694354452D-01
    33  3.2000000000000D-01  1.6561794745139D+00  1.8077108890802D-01
    34  3.3000000000000D-01  1.6506299674796D+00  2.1944559311028D-01
    35  3.4000000000000D-01  1.6413506771166D+00  2.5914958391551D-01
    36  3.5000000000000D-01  1.6283948094657D+00  2.9976869837499D-01
    37  3.6000000000000D-01  1.6118210071937D+00  3.4119594689535D-01
    38  3.7000000000000D-01  1.5916931484835D+00  3.8333232240043D-01
    39  3.8000000000000D-01  1.5680802305021D+00  4.2608714361219D-01
    40  3.9000000000000D-01  1.5410563386568D+00  4.6937812633856D-01
    41  4.0000000000000D-01  1.5107007008290D+00  5.1313118169406D-01
    42  4.1000000000000D-01  1.4770978237299D+00  5.5727994531105D-01
    43  4.2000000000000D-01  1.4403377064885D+00  6.0176504674298D-01
    44  4.3000000000000D-01  1.4005161245978D+00  6.4653313332892D-01
    45  4.4000000000000D-01  1.3577349754406D+00  6.9153566769766D-01
    46  4.5000000000000D-01  1.3121026748331D+00  7.3672752275226D-01
    47  4.6000000000000D-01  1.2637345923884D+00  7.8206540231210D-01
    48  4.7000000000000D-01  1.2127535120548D+00  8.2750611951820D-01
    49  4.8000000000000D-01  1.1592901029463D+00  8.7300476855675D-01
    50  4.9000000000000D-01  1.1034833845893D+00  9.1851282815678D-01
    51  5.0000000000000D-01  1.0454811699758D+00  9.6397623761106D-01
    52  5.1000000000000D-01  9.8544046937217D-01  1.0093334877028D+00
    53  5.2000000000000D-01  9.2352783768115D-01  1.0545137698546D+00
    54  5.3000000000000D-01  8.5991964832446D-01  1.0994352270142D+00
    55  5.4000000000000D-01  7.9480227709360D-01  1.1440033492430D+00
    56  5.5000000000000D-01  7.2837218021876D-01  1.1881095556578D+00
    57  5.6000000000000D-01  6.6083585202357D-01  1.2316300023075D+00
    58  5.7000000000000D-01  5.9240964895117D-01  1.2744246527642D+00
    59  5.8000000000000D-01  5.2331946846556D-01  1.3163366446740D+00
    60  5.9000000000000D-01  4.5380027330651D-01  1.3571919813469D+00
    61  6.0000000000000D-01  3.8409545381659D-01  1.3967995726303D+00
    62  6.1000000000000D-01  3.1445602349030D-01  1.4349516439868D+00
    63  6.2000000000000D-01  2.4513964553695D-01  1.4714245268313D+00
    64  6.3000000000000D-01  1.7640949100999D-01  1.5059798369786D+00
    65  6.4000000000000D-01  1.0853293193406D-01  1.5383660415212D+00
    66  6.5000000000000D-01  4.1780075800401D-02  1.5683204077194D+00
    67  6.6000000000000D-01 -2.3577849263546D-02  1.5955713206904D+00
    68  6.7000000000000D-01 -8.7270246423275D-02  1.6198409498619D+00
    69  6.8000000000000D-01 -1.4902902411337D-01  1.6408482374841D+00
    70  6.9000000000000D-01 -2.0859057431470D-01  1.6583121760622D+00
    71  7.0000000000000D-01 -2.6569783487412D-01  1.6719553354963D+00
    72  7.1000000000000D-01 -3.2010241331135D-01  1.6815075950721D+00
    73  7.2000000000000D-01 -3.7156674754559D-01  1.6867100304038D+00
    74  7.3000000000000D-01 -4.1986627726242D-01  1.6873189010202D+00
    75  7.4000000000000D-01 -4.6479159828191D-01  1.6831096806388D+00
    76  7.5000000000000D-01 -5.0615057130413D-01  1.6738810693379D+00
    77  7.6000000000000D-01 -5.4377035583264D-01  1.6594589249035D+00
    78  7.7000000000000D-01 -5.7749933992748D-01  1.6397000496416D+00
    79  7.8000000000000D-01 -6.0720893673098D-01  1.6144957689341D+00
    80  7.9000000000000D-01 -6.3279521945151D-01  1.5837752388308D+00
    81  8.0000000000000D-01 -6.5418036768378D-01  1.5475084219820D+00
    82  8.1000000000000D-01 -6.7131389958183D-01  1.5057086742617D+00
    83  8.2000000000000D-01 -6.8417366647104D-01  1.4584348884421D+00
    84  8.3000000000000D-01 -6.9276658896702D-01  1.4057931462577D+00
    85  8.4000000000000D-01 -6.9712911653453D-01  1.3479378360515D+00
    86  8.5000000000000D-01 -6.9732739563291D-01  1.2850721998710D+00
    87  8.6000000000000D-01 -6.9345713512457D-01  1.2174482813015D+00
    88  8.7000000000000D-01 -6.8564316140597D-01  1.1453662533589D+00
    89  8.8000000000000D-01 -6.7403865973016D-01  1.0691731143425D+00
    90  8.9000000000000D-01 -6.5882410233166D-01  9.8926074848058D-01
    91  9.0000000000000D-01 -6.4020586823638D-01  9.0606335746871D-01
    92  9.1000000000000D-01 -6.1841456391558D-01  8.2005427832833D-01
    93  9.2000000000000D-01 -5.9370305820603D-01  7.3174221236732D-01
    94  9.3000000000000D-01 -5.6634424908131D-01  6.4166689920047D-01
    95  9.4000000000000D-01 -5.3662858386396D-01  5.5039427866235D-01
    96  9.5000000000000D-01 -5.0486135824809D-01  4.5851119186705D-01
    97  9.6000000000000D-01 -4.7135982299849D-01  3.6661968050194D-01
    98  9.7000000000000D-01 -4.3645013034418D-01  2.7533095055224D-01
    99  9.8000000000000D-01 -4.0046415483896D-01  1.8525907291435D-01
   100  9.9000000000000D-01 -3.6373622577704D-01  9.7014498676890D-02
   101  1.0000000000000D+00 -3.2659981005405D-01  1.1197471056034D-02
   102  1.0100000000000D+00 -2.8938418567209D-01 -7.1608580897819D-02
   103  1.0200000000000D+00 -2.5241114683865D-01 -1.5084357977787D-01
   104  1.0300000000000D+00 -2.1599178175415D-01 -2.2597718085977D-01
   105  1.0400000000000D+00 -1.8042336378391D-01 -2.9651490968341D-01
   106  1.0500000000000D+00 -1.4598639567429D-01 -3.6200397117388D-01
   107  1.0600000000000D+00 -1.1294184486975D-01 -4.2203864857065D-01
   108  1.0700000000000D+00 -8.1528605965623D-02 -4.7626521464438D-01
   109  1.0800000000000D+00 -5.1961223406297D-02 -5.2438628387027D-01
   110  1.0900000000000D+00 -2.4427904522081D-02 -5.6616454066649D-01
   111  1.1000000000000D+00  9.1115094633718D-04 -6.0142578727664D-01
   112  1.1100000000000D+00  2.3925082429097D-02 -6.3006126294866D-01
   113  1.1200000000000D+00  4.4513343480108D-02 -6.5202919617603D-01
   114  1.1300000000000D+00  6.2606307254280D-02 -6.6735556238702D-01
   115  1.1400000000000D+00  7.8165494654146D-02 -6.7613403034225D-01
   116  1.1500000000000D+00  9.1183422259926D-02 -6.7852509134322D-01
   117  1.1600000000000D+00  1.0168307230397D-01 -6.7475437659956D-01
   118  1.1700000000000D+00  1.0971699287523D-01 -6.6511018107882D-01
   119  1.1800000000000D+00  1.1536604156233D-01 -6.4994022317843D-01
   120  1.1900000000000D+00  1.1873778983315D-01 -6.2964767852752D-01
   121  1.2000000000000D+00  1.1996461161302D-01 -6.0468653976459D-01
   122  1.2100000000000D+00  1.1920148370559D-01 -5.7555636333420D-01
   123  1.2200000000000D+00  1.1662352964316D-01 -5.4279647301347D-01
   124  1.2300000000000D+00  1.1242334181536D-01 -5.0697969705380D-01
   125  1.2400000000000D+00  1.0680812158743D-01 -4.6870572652302D-01
   126  1.2500000000000D+00  9.9996678582832D-02 -4.2859418563653D-01
   127  1.2600000000000D+00  9.2216332377472D-02 -3.8727750951277D-01
   128  1.2700000000000D+00  8.3699765547137D-02 -3.4539373803731D-01
   129  1.2800000000000D+00  7.4681874357611D-02 -3.0357932728271D-01
   130  1.2900000000000D+00  6.5396563373054D-02 -2.6246183470552D-01
   131  1.3000000000000D+00  5.6073799403044D-02 -2.2265323929654D-01
   132  1.3100000000000D+00  4.6937249006970D-02 -1.8474473097154D-01
   133  1.3200000000000D+00  3.8198250314792D-02 -1.4929221130161D-01
   134  1.3300000000000D+00  3.0050076839447D-02 -1.1680263250651D-01
   135  1.3400000000000D+00  2.2661955655787D-02 -8.7719840253115D-02
   136  1.3500000000000D+00  1.6176733258123D-02 -6.2419557245211D-02
   137  1.3600000000000D+00  1.0712690648139D-02 -4.1219244719385D-02
   138  1.3700000000000D+00  6.3423638080489D-03 -2.4300300960080D-02
   139  1.3800000000000D+00  3.1130733536022D-03 -1.1790224793257D-02
   140  1.3900000000000D+00  1.1594830886743D-03 -4.1706511927620D-03
   141  1.4000000000000D+00  3.1030130619752D-04 -8.5157941711861D-04
   142  1.4100000000000D+00  4.2936524987199D-05  2.8244416317577D-05
   143  1.4200000000000D+00 -2.0306064113660D-07 -6.0257647259328D-06
   144  1.4300000000000D+00  2.6089394842448D-06 -4.0588532029907D-05
   145  1.4400000000000D+00  5.0445884105336D-07  3.7689782871129D-06
   146  1.4500000000000D+00  2.1176398005931D-07  3.7169623285794D-06
   147  1.4600000000000D+00 -5.6854293288869D-07  1.3015729034384D-06
   148  1.4700000000000D+00 -1.0533611350974D-07  2.4114736665740D-07
   149  1.4800000000000D+00  0.0000000000000D+00  0.0000000000000D+00
   150  1.4900000000000D+00  0.0000000000000D+00  0.0000000000000D+00
   151  1.5000000000000D+00  0.0000000000000D+00  0.0000000000000D+00
   152  1.5100000000000D+00  0.0000000000000D+00  0.0000000000000D+00
   153  1.5200000000000D+00  0.0000000000000D+00  0.0000000000000D+00
   154  1.5300000000000D+00  0.0000000000000D+00  0.0000000000000D+00
   155  1.5400000000000D+00  0.0000000000000D+00  0.0000000000000D+00
   156  1.5500000000000D+00  0.0000000000000D+00  0.0000000000000D+00
   157  1.5600000000000D+00  0.0000000000000D+00  0.0000000000000D+00
   158  1.5700000000000D+00  0.0000000000000D+00  0.0000000000000D+00
   159  1.5800000000000D+00  0.0000000000000D+00  0.0000000000000D+00
   160  1.5900000000000D+00  0.0000000000000D+00  0.0000000000000D+00
   161  1.6000000000000D+00  0.0000000000000D+00  0.0000000000000D+00
   162  1.6100000000000D+00  0.0000000000000D+00  0.0000000000000D+00
   163  1.6200000000000D+00  0.0000000000000D+00  0.0000000000000D+00
   164  1.6300000000000D+00  0.0000000000000D+00  0.0000000000000D+00
   165  1.6400000000000D+00  0.0000000000000D+00  0.0000000000000D+00
   166  1.6500000000000D+00  0.0000000000000D+00  0.0000000000000D+00
   167  1.6600000000000D+00  0.0000000000000D+00  0.0000000000000D+00
   168  1.6700000000000D+00  0.0000000000000D+00  0.0000000000000D+00
   169  1.6800000000000D+00  0.0000000000000D+00  0.0000000000000D+00
   170  1.6900000000000D+00  0.0000000000000D+00  0.0000000000000D+00
   171  1.7000000000000D+00  0.0000000000000D+00  0.0000000000000D+00
   172  1.7100000000000D+00  0.0000000000000D+00  0.0000000000000D+00
   173  1.7200000000000D+00  0.0000000000000D+00  0.0000000000000D+00
   174  1.7300000000000D+00  0.0000000000000D+00  0.0000000000000D+00
   175  1.7400000000000D+00  0.0000000000000D+00  0.0000000000000D+00
   176  1.7500000000000D+00  0.0000000000000D+00  0.0000000000000D+00
   177  1.7600000000000D+00  0.0000000000000D+00  0.0000000000000D+00
   178  1.7700000000000D+00  0.0000000000000D+00  0.0000000000000D+00
   179  1.7800000000000D+00  0.0000000000000D+00  0.0000000000000D+00
   180  1.7900000000000D+00  0.0000000000000D+00  0.0000000000000D+00
   181  1.8000000000000D+00  0.0000000000000D+00  0.0000000000000D+00
   182  1.8100000000000D+00  0.0000000000000D+00  0.0000000000000D+00
   183  1.8200000000000D+00  0.0000000000000D+00  0.0000000000000D+00
   184  1.8300000000000D+00  0.0000000000000D+00  0.0000000000000D+00
   185  1.8400000000000D+00  0.0000000000000D+00  0.0000000000000D+00
   186  1.8500000000000D+00  0.0000000000000D+00  0.0000000000000D+00
   187  1.8600000000000D+00  0.0000000000000D+00  0.0000000000000D+00
   188  1.8700000000000D+00  0.0000000000000D+00  0.0000000000000D+00
   189  1.8800000000000D+00  0.0000000000000D+00  0.0000000000000D+00
   190  1.8900000000000D+00  0.0000000000000D+00  0.0000000000000D+00
   191  1.9000000000000D+00  0.0000000000000D+00  0.0000000000000D+00
   192  1.9100000000000D+00  0.0000000000000D+00  0.0000000000000D+00
   193  1.9200000000000D+00  0.0000000000000D+00  0.0000000000000D+00
   194  1.9300000000000D+00  0.0000000000000D+00  0.0000000000000D+00
   195  1.9400000000000D+00  0.0000000000000D+00  0.0000000000000D+00
   196  1.9500000000000D+00  0.0000000000000D+00  0.0000000000000D+00
   197  1.9600000000000D+00  0.0000000000000D+00  0.0000000000000D+00
   198  1.9700000000000D+00  0.0000000000000D+00  0.0000000000000D+00
   199  1.9800000000000D+00  0.0000000000000D+00  0.0000000000000D+00
   200  1.9900000000000D+00  0.0000000000000D+00  0.0000000000000D+00
   201  2.0000000000000D+00  0.0000000000000D+00  0.0000000000000D+00
   202  2.0100000000000D+00  0.0000000000000D+00  0.0000000000000D+00
   203  2.0200000000000D+00  0.0000000000000D+00  0.0000000000000D+00
   204  2.0300000000000D+00  0.0000000000000D+00  0.0000000000000D+00
   205  2.0400000000000D+00  0.0000000000000D+00  0.0000000000000D+00
   206  2.0500000000000D+00  0.0000000000000D+00  0.0000000000000D+00
   207  2.0600000000000D+00  0.0000000000000D+00  0.0000000000000D+00
   208  2.0700000000000D+00  0.0000000000000D+00  0.0000000000000D+00
   209  2.0800000000000D+00  0.0000000000000D+00  0.0000000000000D+00
   210  2.0900000000000D+00  0.0000000000000D+00  0.0000000000000D+00
   211  2.1000000000000D+00  0.0000000000000D+00  0.0000000000000D+00
   212  2.1100000000000D+00  0.0000000000000D+00  0.0000000000000D+00
   213  2.1200000000000D+00  0.0000000000000D+00  0.0000000000000D+00
   214  2.1300000000000D+00  0.0000000000000D+00  0.0000000000000D+00
   215  2.1400000000000D+00  0.0000000000000D+00  0.0000000000000D+00
   216  2.1500000000000D+00  0.0000000000000D+00  0.0000000000000D+00
   217  2.1600000000000D+00  0.0000000000000D+00  0.0000000000000D+00
   218  2.1700000000000D+00  0.0000000000000D+00  0.0000000000000D+00
   219  2.1800000000000D+00  0.0000000000000D+00  0.0000000000000D+00
   220  2.1900000000000D+00  0.0000000000000D+00  0.0000000000000D+00
   221  2.2000000000000D+00  0.0000000000000D+00  0.0000000000000D+00
   222  2.2100000000000D+00  0.0000000000000D+00  0.0000000000000D+00
   223  2.2200000000000D+00  0.0000000000000D+00  0.0000000000000D+00
   224  2.2300000000000D+00  0.0000000000000D+00  0.0000000000000D+00
   225  2.2400000000000D+00  0.0000000000000D+00  0.0000000000000D+00
   226  2.2500000000000D+00  0.0000000000000D+00  0.0000000000000D+00
   227  2.2600000000000D+00  0.0000000000000D+00  0.0000000000000D+00
   228  2.2700000000000D+00  0.0000000000000D+00  0.0000000000000D+00
   229  2.2800000000000D+00  0.0000000000000D+00  0.0000000000000D+00
   230  2.2900000000000D+00  0.0000000000000D+00  0.0000000000000D+00
   231  2.3000000000000D+00  0.0000000000000D+00  0.0000000000000D+00
   232  2.3100000000000D+00  0.0000000000000D+00  0.0000000000000D+00
   233  2.3200000000000D+00  0.0000000000000D+00  0.0000000000000D+00
   234  2.3300000000000D+00  0.0000000000000D+00  0.0000000000000D+00
   235  2.3400000000000D+00  0.0000000000000D+00  0.0000000000000D+00
   236  2.3500000000000D+00  0.0000000000000D+00  0.0000000000000D+00
   237  2.3600000000000D+00  0.0000000000000D+00  0.0000000000000D+00
   238  2.3700000000000D+00  0.0000000000000D+00  0.0000000000000D+00
   239  2.3800000000000D+00  0.0000000000000D+00  0.0000000000000D+00
   240  2.3900000000000D+00  0.0000000000000D+00  0.0000000000000D+00
   241  2.4000000000000D+00  0.0000000000000D+00  0.0000000000000D+00
   242  2.4100000000000D+00  0.0000000000000D+00  0.0000000000000D+00
   243  2.4200000000000D+00  0.0000000000000D+00  0.0000000000000D+00
   244  2.4300000000000D+00  0.0000000000000D+00  0.0000000000000D+00
   245  2.4400000000000D+00  0.0000000000000D+00  0.0000000000000D+00
   246  2.4500000000000D+00  0.0000000000000D+00  0.0000000000000D+00
   247  2.4600000000000D+00  0.0000000000000D+00  0.0000000000000D+00
   248  2.4700000000000D+00  0.0000000000000D+00  0.0000000000000D+00
   249  2.4800000000000D+00  0.0000000000000D+00  0.0000000000000D+00
   250  2.4900000000000D+00  0.0000000000000D+00  0.0000000000000D+00
   251  2.5000000000000D+00  0.0000000000000D+00  0.0000000000000D+00
   252  2.5100000000000D+00  0.0000000000000D+00  0.0000000000000D+00
   253  2.5200000000000D+00  0.0000000000000D+00  0.0000000000000D+00
   254  2.5300000000000D+00  0.0000000000000D+00  0.0000000000000D+00
   255  2.5400000000000D+00  0.0000000000000D+00  0.0000000000000D+00
   256  2.5500000000000D+00  0.0000000000000D+00  0.0000000000000D+00
   257  2.5600000000000D+00  0.0000000000000D+00  0.0000000000000D+00
   258  2.5700000000000D+00  0.0000000000000D+00  0.0000000000000D+00
   259  2.5800000000000D+00  0.0000000000000D+00  0.0000000000000D+00
   260  2.5900000000000D+00  0.0000000000000D+00  0.0000000000000D+00
   261  2.6000000000000D+00  0.0000000000000D+00  0.0000000000000D+00
   262  2.6100000000000D+00  0.0000000000000D+00  0.0000000000000D+00
   263  2.6200000000000D+00  0.0000000000000D+00  0.0000000000000D+00
   264  2.6300000000000D+00  0.0000000000000D+00  0.0000000000000D+00
   265  2.6400000000000D+00  0.0000000000000D+00  0.0000000000000D+00
   266  2.6500000000000D+00  0.0000000000000D+00  0.0000000000000D+00
   267  2.6600000000000D+00  0.0000000000000D+00  0.0000000000000D+00
   268  2.6700000000000D+00  0.0000000000000D+00  0.0000000000000D+00
   269  2.6800000000000D+00  0.0000000000000D+00  0.0000000000000D+00
   270  2.6900000000000D+00  0.0000000000000D+00  0.0000000000000D+00
   271  2.7000000000000D+00  0.0000000000000D+00  0.0000000000000D+00
   272  2.7100000000000D+00  0.0000000000000D+00  0.0000000000000D+00
   273  2.7200000000000D+00  0.0000000000000D+00  0.0000000000000D+00
   274  2.7300000000000D+00  0.0000000000000D+00  0.0000000000000D+00
   275  2.7400000000000D+00  0.0000000000000D+00  0.0000000000000D+00
   276  2.7500000000000D+00  0.0000000000000D+00  0.0000000000000D+00
   277  2.7600000000000D+00  0.0000000000000D+00  0.0000000000000D+00
   278  2.7700000000000D+00  0.0000000000000D+00  0.0000000000000D+00
   279  2.7800000000000D+00  0.0000000000000D+00  0.0000000000000D+00
   280  2.7900000000000D+00  0.0000000000000D+00  0.0000000000000D+00
   281  2.8000000000000D+00  0.0000000000000D+00  0.0000000000000D+00
   282  2.8100000000000D+00  0.0000000000000D+00  0.0000000000000D+00
   283  2.8200000000000D+00  0.0000000000000D+00  0.0000000000000D+00
   284  2.8300000000000D+00  0.0000000000000D+00  0.0000000000000D+00
   285  2.8400000000000D+00  0.0000000000000D+00  0.0000000000000D+00
   286  2.8500000000000D+00  0.0000000000000D+00  0.0000000000000D+00
   287  2.8600000000000D+00  0.0000000000000D+00  0.0000000000000D+00
   288  2.8700000000000D+00  0.0000000000000D+00  0.0000000000000D+00
   289  2.8800000000000D+00  0.0000000000000D+00  0.0000000000000D+00
   290  2.8900000000000D+00  0.0000000000000D+00  0.0000000000000D+00
   291  2.9000000000000D+00  0.0000000000000D+00  0.0000000000000D+00
   292  2.9100000000000D+00  0.0000000000000D+00  0.0000000000000D+00
   293  2.9200000000000D+00  0.0000000000000D+00  0.0000000000000D+00
   294  2.9300000000000D+00  0.0000000000000D+00  0.0000000000000D+00
   295  2.9400000000000D+00  0.0000000000000D+00  0.0000000000000D+00
   296  2.9500000000000D+00  0.0000000000000D+00  0.0000000000000D+00
   297  2.9600000000000D+00  0.0000000000000D+00  0.0000000000000D+00
   298  2.9700000000000D+00  0.0000000000000D+00  0.0000000000000D+00
   299  2.9800000000000D+00  0.0000000000000D+00  0.0000000000000D+00
   300  2.9900000000000D+00  0.0000000000000D+00  0.0000000000000D+00
   301  3.0000000000000D+00  0.0000000000000D+00  0.0000000000000D+00
   302  3.0100000000000D+00  0.0000000000000D+00  0.0000000000000D+00
   303  3.0200000000000D+00  0.0000000000000D+00  0.0000000000000D+00
   304  3.0300000000000D+00  0.0000000000000D+00  0.0000000000000D+00
   305  3.0400000000000D+00  0.0000000000000D+00  0.0000000000000D+00
   306  3.0500000000000D+00  0.0000000000000D+00  0.0000000000000D+00
   307  3.0600000000000D+00  0.0000000000000D+00  0.0000000000000D+00
   308  3.0700000000000D+00  0.0000000000000D+00  0.0000000000000D+00
   309  3.0800000000000D+00  0.0000000000000D+00  0.0000000000000D+00
   310  3.0900000000000D+00  0.0000000000000D+00  0.0000000000000D+00
   311  3.1000000000000D+00  0.0000000000000D+00  0.0000000000000D+00
   312  3.1100000000000D+00  0.0000000000000D+00  0.0000000000000D+00
   313  3.1200000000000D+00  0.0000000000000D+00  0.0000000000000D+00
   314  3.1300000000000D+00  0.0000000000000D+00  0.0000000000000D+00
   315  3.1400000000000D+00  0.0000000000000D+00  0.0000000000000D+00
   316  3.1500000000000D+00  0.0000000000000D+00  0.0000000000000D+00
   317  3.1600000000000D+00  0.0000000000000D+00  0.0000000000000D+00
   318  3.1700000000000D+00  0.0000000000000D+00  0.0000000000000D+00
   319  3.1800000000000D+00  0.0000000000000D+00  0.0000000000000D+00
   320  3.1900000000000D+00  0.0000000000000D+00  0.0000000000000D+00
   321  3.2000000000000D+00  0.0000000000000D+00  0.0000000000000D+00
   322  3.2100000000000D+00  0.0000000000000D+00  0.0000000000000D+00
   323  3.2200000000000D+00  0.0000000000000D+00  0.0000000000000D+00
   324  3.2300000000000D+00  0.0000000000000D+00  0.0000000000000D+00
   325  3.2400000000000D+00  0.0000000000000D+00  0.0000000000000D+00
   326  3.2500000000000D+00  0.0000000000000D+00  0.0000000000000D+00
   327  3.2600000000000D+00  0.0000000000000D+00  0.0000000000000D+00
   328  3.2700000000000D+00  0.0000000000000D+00  0.0000000000000D+00
   329  3.2800000000000D+00  0.0000000000000D+00  0.0000000000000D+00
   330  3.2900000000000D+00  0.0000000000000D+00  0.0000000000000D+00
   331  3.3000000000000D+00  0.0000000000000D+00  0.0000000000000D+00
   332  3.3100000000000D+00  0.0000000000000D+00  0.0000000000000D+00
   333  3.3200000000000D+00  0.0000000000000D+00  0.0000000000000D+00
   334  3.3300000000000D+00  0.0000000000000D+00  0.0000000000000D+00
   335  3.3400000000000D+00  0.0000000000000D+00  0.0000000000000D+00
   336  3.3500000000000D+00  0.0000000000000D+00  0.0000000000000D+00
   337  3.3600000000000D+00  0.0000000000000D+00  0.0000000000000D+00
   338  3.3700000000000D+00  0.0000000000000D+00  0.0000000000000D+00
   339  3.3800000000000D+00  0.0000000000000D+00  0.0000000000000D+00
   340  3.3900000000000D+00  0.0000000000000D+00  0.0000000000000D+00
   341  3.4000000000000D+00  0.0000000000000D+00  0.0000000000000D+00
   342  3.4100000000000D+00  0.0000000000000D+00  0.0000000000000D+00
   343  3.4200000000000D+00  0.0000000000000D+00  0.0000000000000D+00
   344  3.4300000000000D+00  0.0000000000000D+00  0.0000000000000D+00
   345  3.4400000000000D+00  0.0000000000000D+00  0.0000000000000D+00
   346  3.4500000000000D+00  0.0000000000000D+00  0.0000000000000D+00
   347  3.4600000000000D+00  0.0000000000000D+00  0.0000000000000D+00
   348  3.4700000000000D+00  0.0000000000000D+00  0.0000000000000D+00
   349  3.4800000000000D+00  0.0000000000000D+00  0.0000000000000D+00
   350  3.4900000000000D+00  0.0000000000000D+00  0.0000000000000D+00
   351  3.5000000000000D+00  0.0000000000000D+00  0.0000000000000D+00
   352  3.5100000000000D+00  0.0000000000000D+00  0.0000000000000D+00
   353  3.5200000000000D+00  0.0000000000000D+00  0.0000000000000D+00
   354  3.5300000000000D+00  0.0000000000000D+00  0.0000000000000D+00
   355  3.5400000000000D+00  0.0000000000000D+00  0.0000000000000D+00
   356  3.5500000000000D+00  0.0000000000000D+00  0.0000000000000D+00
   357  3.5600000000000D+00  0.0000000000000D+00  0.0000000000000D+00
   358  3.5700000000000D+00  0.0000000000000D+00  0.0000000000000D+00
   359  3.5800000000000D+00  0.0000000000000D+00  0.0000000000000D+00
   360  3.5900000000000D+00  0.0000000000000D+00  0.0000000000000D+00
   361  3.6000000000000D+00  0.0000000000000D+00  0.0000000000000D+00
   362  3.6100000000000D+00  0.0000000000000D+00  0.0000000000000D+00
   363  3.6200000000000D+00  0.0000000000000D+00  0.0000000000000D+00
   364  3.6300000000000D+00  0.0000000000000D+00  0.0000000000000D+00
   365  3.6400000000000D+00  0.0000000000000D+00  0.0000000000000D+00
   366  3.6500000000000D+00  0.0000000000000D+00  0.0000000000000D+00
   367  3.6600000000000D+00  0.0000000000000D+00  0.0000000000000D+00
   368  3.6700000000000D+00  0.0000000000000D+00  0.0000000000000D+00
   369  3.6800000000000D+00  0.0000000000000D+00  0.0000000000000D+00
   370  3.6900000000000D+00  0.0000000000000D+00  0.0000000000000D+00
   371  3.7000000000000D+00  0.0000000000000D+00  0.0000000000000D+00
   372  3.7100000000000D+00  0.0000000000000D+00  0.0000000000000D+00
   373  3.7200000000000D+00  0.0000000000000D+00  0.0000000000000D+00
   374  3.7300000000000D+00  0.0000000000000D+00  0.0000000000000D+00
   375  3.7400000000000D+00  0.0000000000000D+00  0.0000000000000D+00
   376  3.7500000000000D+00  0.0000000000000D+00  0.0000000000000D+00
   377  3.7600000000000D+00  0.0000000000000D+00  0.0000000000000D+00
   378  3.7700000000000D+00  0.0000000000000D+00  0.0000000000000D+00
   379  3.7800000000000D+00  0.0000000000000D+00  0.0000000000000D+00
   380  3.7900000000000D+00  0.0000000000000D+00  0.0000000000000D+00
   381  3.8000000000000D+00  0.0000000000000D+00  0.0000000000000D+00
   382  3.8100000000000D+00  0.0000000000000D+00  0.0000000000000D+00
   383  3.8200000000000D+00  0.0000000000000D+00  0.0000000000000D+00
   384  3.8300000000000D+00  0.0000000000000D+00  0.0000000000000D+00
   385  3.8400000000000D+00  0.0000000000000D+00  0.0000000000000D+00
   386  3.8500000000000D+00  0.0000000000000D+00  0.0000000000000D+00
   387  3.8600000000000D+00  0.0000000000000D+00  0.0000000000000D+00
   388  3.8700000000000D+00  0.0000000000000D+00  0.0000000000000D+00
   389  3.8800000000000D+00  0.0000000000000D+00  0.0000000000000D+00
   390  3.8900000000000D+00  0.0000000000000D+00  0.0000000000000D+00
   391  3.9000000000000D+00  0.0000000000000D+00  0.0000000000000D+00
   392  3.9100000000000D+00  0.0000000000000D+00  0.0000000000000D+00
   393  3.9200000000000D+00  0.0000000000000D+00  0.0000000000000D+00
   394  3.9300000000000D+00  0.0000000000000D+00  0.0000000000000D+00
   395  3.9400000000000D+00  0.0000000000000D+00  0.0000000000000D+00
   396  3.9500000000000D+00  0.0000000000000D+00  0.0000000000000D+00
   397  3.9600000000000D+00  0.0000000000000D+00  0.0000000000000D+00
   398  3.9700000000000D+00  0.0000000000000D+00  0.0000000000000D+00
   399  3.9800000000000D+00  0.0000000000000D+00  0.0000000000000D+00
   400  3.9900000000000D+00  0.0000000000000D+00  0.0000000000000D+00
   401  4.0000000000000D+00  0.0000000000000D+00  0.0000000000000D+00
   402  4.0100000000000D+00  0.0000000000000D+00  0.0000000000000D+00
   403  4.0200000000000D+00  0.0000000000000D+00  0.0000000000000D+00
   404  4.0300000000000D+00  0.0000000000000D+00  0.0000000000000D+00
   405  4.0400000000000D+00  0.0000000000000D+00  0.0000000000000D+00
   406  4.0500000000000D+00  0.0000000000000D+00  0.0000000000000D+00
   407  4.0600000000000D+00  0.0000000000000D+00  0.0000000000000D+00
   408  4.0700000000000D+00  0.0000000000000D+00  0.0000000000000D+00
   409  4.0800000000000D+00  0.0000000000000D+00  0.0000000000000D+00
   410  4.0900000000000D+00  0.0000000000000D+00  0.0000000000000D+00
   411  4.1000000000000D+00  0.0000000000000D+00  0.0000000000000D+00
   412  4.1100000000000D+00  0.0000000000000D+00  0.0000000000000D+00
   413  4.1200000000000D+00  0.0000000000000D+00  0.0000000000000D+00
   414  4.1300000000000D+00  0.0000000000000D+00  0.0000000000000D+00
   415  4.1400000000000D+00  0.0000000000000D+00  0.0000000000000D+00
   416  4.1500000000000D+00  0.0000000000000D+00  0.0000000000000D+00
   417  4.1600000000000D+00  0.0000000000000D+00  0.0000000000000D+00
   418  4.1700000000000D+00  0.0000000000000D+00  0.0000000000000D+00
   419  4.1800000000000D+00  0.0000000000000D+00  0.0000000000000D+00
   420  4.1900000000000D+00  0.0000000000000D+00  0.0000000000000D+00
   421  4.2000000000000D+00  0.0000000000000D+00  0.0000000000000D+00
   422  4.2100000000000D+00  0.0000000000000D+00  0.0000000000000D+00