Ho    ONCVPSP-3.3.0  r_core=   1.80073   1.50571   1.65647   1.71682
     67.0000     21.0000      220408    zatom,zion,pspd
     8       2   3     4   600     0    pspcod,pspxc,lmax,lloc,mmax,r2well
  5.99000000  0.00000000  0.00000000    rchrg fchrg qchrg
     2     2     2     2     0    nproj
     1     1           extension_switch
   0                         8.9187704941309D+00  6.4719666307916D-01
     1  0.0000000000000D+00 -5.9939608831883D-11  3.7205741265645D-10
     2  1.0000000000000D-02  5.1285513217634D-02 -2.4997354215130D-02
     3  2.0000000000000D-02  1.0249755688547D-01 -4.9840746056085D-02
     4  3.0000000000000D-02  1.5356287380514D-01 -7.4377360676939D-02
     5  4.0000000000000D-02  2.0440862993514D-01 -9.8456667906892D-02
     6  5.0000000000000D-02  2.5496262211965D-01 -1.2193153872943D-01
     7  6.0000000000000D-02  3.0515348124073D-01 -1.4465933099671D-01
     8  7.0000000000000D-02  3.5491086933911D-01 -1.6650293456401D-01
     9  8.0000000000000D-02  4.0416566930908D-01 -1.8733176640117D-01
    10  9.0000000000000D-02  4.5285016584644D-01 -2.0702270669708D-01
    11  1.0000000000000D-01  5.0089821641614D-01 -2.2546096751553D-01
    12  1.1000000000000D-01  5.4824541110512D-01 -2.4254088618129D-01
    13  1.2000000000000D-01  5.9482922033746D-01 -2.5816663626921D-01
    14  1.3000000000000D-01  6.4058912954990D-01 -2.7225284982963D-01
    15  1.4000000000000D-01  6.8546676005675D-01 -2.8472514530502D-01
    16  1.5000000000000D-01  7.2940597547185D-01 -2.9552055646711D-01
    17  1.6000000000000D-01  7.7235297320037D-01 -3.0458785862411D-01
    18  1.7000000000000D-01  8.1425636066416D-01 -3.1188778930535D-01
    19  1.8000000000000D-01  8.5506721607840D-01 -3.1739316161737D-01
    20  1.9000000000000D-01  8.9473913375406D-01 -3.2108886947272D-01
    21  2.0000000000000D-01  9.3322825405796D-01 -3.2297178491056D-01
    22  2.1000000000000D-01  9.7049327831829D-01 -3.2305054874853D-01
    23  2.2000000000000D-01  1.0064954691177D+00 -3.2134525681781D-01
    24  2.3000000000000D-01  1.0411986365651D+00 -3.1788704502926D-01
    25  2.4000000000000D-01  1.0745691112823D+00 -3.1271757748857D-01
    26  2.5000000000000D-01  1.1065757049767D+00 -3.0588844281247D-01
    27  2.6000000000000D-01  1.1371896596011D+00 -2.9746046468911D-01
    28  2.7000000000000D-01  1.1663845862185D+00 -2.8750293356279D-01
    29  2.8000000000000D-01  1.1941363947944D+00 -2.7609276710014D-01
    30  2.9000000000000D-01  1.2204232162372D+00 -2.6331360780233D-01
    31  3.0000000000000D-01  1.2452253180806D+00 -2.4925486675930D-01
    32  3.1000000000000D-01  1.2685250152706D+00 -2.3401072309071D-01
    33  3.2000000000000D-01  1.2903065775679D+00 -2.1767908907799D-01
    34  3.3000000000000D-01  1.3105561351053D+00 -2.0036055135757D-01
    35  3.4000000000000D-01  1.3292615836578D+00 -1.8215729881218D-01
    36  3.5000000000000D-01  1.3464124911778D+00 -1.6317204796241D-01
    37  3.6000000000000D-01  1.3620000071262D+00 -1.4350697672066D-01
    38  3.7000000000000D-01  1.3760167760930D+00 -1.2326267732263D-01
    39  3.8000000000000D-01  1.3884568571405D+00 -1.0253713909862D-01
    40  3.9000000000000D-01  1.3993156502300D+00 -8.1424771485493D-02
    41  4.0000000000000D-01  1.4085898309983D+00 -6.0015477313648D-02
    42  4.1000000000000D-01  1.4162772950424D+00 -3.8393785933929D-02
    43  4.2000000000000D-01  1.4223771127458D+00 -1.6638055179550D-02
    44  4.3000000000000D-01  1.4268894955399D+00  5.1802495073691D-03
    45  4.4000000000000D-01  1.4298157743426D+00  2.6997191209187D-02
    46  4.5000000000000D-01  1.4311583907491D+00  4.8756906190431D-02
    47  4.6000000000000D-01  1.4309209013770D+00  7.0412051257373D-02
    48  4.7000000000000D-01  1.4291079955814D+00  9.1924148980324D-02
    49  4.8000000000000D-01  1.4257255265673D+00  1.1326382697979D-01
    50  4.9000000000000D-01  1.4207805557287D+00  1.3441094856720D-01
    51  5.0000000000000D-01  1.4142814098474D+00  1.5535463315797D-01
    52  5.1000000000000D-01  1.4062377505841D+00  1.7609316602909D-01
    53  5.2000000000000D-01  1.3966606554994D+00  1.9663379816203D-01
    54  5.3000000000000D-01  1.3855627096466D+00  2.1699243808394D-01
    55  5.4000000000000D-01  1.3729581065954D+00  2.3719323878244D-01
    56  5.5000000000000D-01  1.3588627575655D+00  2.5726808390938D-01
    57  5.6000000000000D-01  1.3432944071845D+00  2.7725597859542D-01
    58  5.7000000000000D-01  1.3262727542303D+00  2.9720235125450D-01
    59  5.8000000000000D-01  1.3078195755838D+00  3.1715827375909D-01
    60  5.9000000000000D-01  1.2879588514949D+00  3.3717960829281D-01
    61  6.0000000000000D-01  1.2667168901699D+00  3.5732609003586D-01
    62  6.1000000000000D-01  1.2441224496047D+00  3.7766035558971D-01
    63  6.2000000000000D-01  1.2202068545410D+00  3.9824692770100D-01
    64  6.3000000000000D-01  1.1950041063842D+00  4.1915116738039D-01
    65  6.4000000000000D-01  1.1685509839245D+00  4.4043820493605D-01
    66  6.5000000000000D-01  1.1408871327205D+00  4.6217186173287D-01
    67  6.6000000000000D-01  1.1120551410547D+00  4.8441357465346D-01
    68  6.7000000000000D-01  1.0821006004485D+00  5.0722133526512D-01
    69  6.8000000000000D-01  1.0510721488273D+00  5.3064865558805D-01
    70  6.9000000000000D-01  1.0190214945575D+00  5.5474357211328D-01
    71  7.0000000000000D-01  9.8600341973614D-01  5.7954769933601D-01
    72  7.1000000000000D-01  9.5207576129614D-01  6.0509534354972D-01
    73  7.2000000000000D-01  9.1729936869827D-01  6.3141268699888D-01
    74  7.3000000000000D-01  8.8173803720967D-01  6.5851705171231D-01
    75  7.4000000000000D-01  8.4545841601881D-01  6.8641625145265D-01
    76  7.5000000000000D-01  8.0852989070496D-01  7.1510803921416D-01
    77  7.6000000000000D-01  7.7102443986244D-01  7.4457965660800D-01
    78  7.7000000000000D-01  7.3301646597501D-01  7.7480749029366D-01
    79  7.8000000000000D-01  6.9458260093966D-01  8.0575683936353D-01
    80  7.9000000000000D-01  6.5580148694804D-01  8.3738179627988D-01
    81  8.0000000000000D-01  6.1675353374458D-01  8.6962524261719D-01
    82  8.1000000000000D-01  5.7752065358898D-01  9.0241895949075D-01
    83  8.2000000000000D-01  5.3818597555290D-01  9.3568385117827D-01
    84  8.3000000000000D-01  4.9883354107221D-01  9.6933027907997D-01
    85  8.4000000000000D-01  4.5954798295392D-01  1.0032585018307D+00
    86  8.5000000000000D-01  4.2041419029517D-01  1.0373592161012D+00
    87  8.6000000000000D-01  3.8151696200743D-01  1.0715141914148D+00
    88  8.7000000000000D-01  3.4294065184837D-01  1.1055969911882D+00
    89  8.8000000000000D-01  3.0476880804200D-01  1.1394737711890D+00
    90  8.9000000000000D-01  2.6708381071268D-01  1.1730041457115D+00
    91  9.0000000000000D-01  2.2996651046519D-01  1.2060421110236D+00
    92  9.1000000000000D-01  1.9349587151015D-01  1.2384370150352D+00
    93  9.2000000000000D-01  1.5774862275823D-01  1.2700345617099D+00
    94  9.3000000000000D-01  1.2279892028529D-01  1.3006778384834D+00
    95  9.4000000000000D-01  8.8718024503497D-02  1.3302083548852D+00
    96  9.5000000000000D-01  5.5573995258130D-02  1.3584670806806D+00
    97  9.6000000000000D-01  2.3431407906982D-02  1.3852954721690D+00
    98  9.7000000000000D-01 -7.6489067720416D-03  1.4105364757886D+00
    99  9.8000000000000D-01 -3.7610096257645D-02  1.4340354988880D+00
   100  9.9000000000000D-01 -6.6399491261055D-02  1.4556413384185D+00
   101  1.0000000000000D+00 -9.3968780073631D-02  1.4752070594175D+00
   102  1.0100000000000D+00 -1.2027415072281D-01  1.4925908163244D+00
   103  1.0200000000000D+00 -1.4527639982877D-01  1.5076566116799D+00
   104  1.0300000000000D+00 -1.6894100749177D-01  1.5202749882394D+00
   105  1.0400000000000D+00 -1.9123817803415D-01  1.5303236522227D+00
   106  1.0500000000000D+00 -2.1214284692773D-01  1.5376880271750D+00
   107  1.0600000000000D+00 -2.3163465477980D-01  1.5422617398045D+00
   108  1.0700000000000D+00 -2.4969788973369D-01  1.5439470408496D+00
   109  1.0800000000000D+00 -2.6632140024839D-01  1.5426551661551D+00
   110  1.0900000000000D+00 -2.8149848069696D-01  1.5383066447889D+00
   111  1.1000000000000D+00 -2.9522673276951D-01  1.5308315629205D+00
   112  1.1100000000000D+00 -3.0750790614041D-01  1.5201697937862D+00
   113  1.1200000000000D+00 -3.1834772230899D-01  1.5062712055802D+00
   114  1.1300000000000D+00 -3.2775568598326D-01  1.4890958605885D+00
   115  1.1400000000000D+00 -3.3574488869942D-01  1.4686142198600D+00
   116  1.1500000000000D+00 -3.4233180967641D-01  1.4448073685316D+00
   117  1.1600000000000D+00 -3.4753611913110D-01  1.4176672775087D+00
   118  1.1700000000000D+00 -3.5138048945854D-01  1.3871971173751D+00
   119  1.1800000000000D+00 -3.5389041967192D-01  1.3534116399244D+00
   120  1.1900000000000D+00 -3.5509407846250D-01  1.3163376420979D+00
   121  1.2000000000000D+00 -3.5502217112601D-01  1.2760145260806D+00
   122  1.2100000000000D+00 -3.5370783523857D-01  1.2324949671610D+00
   123  1.2200000000000D+00 -3.5118656939225D-01  1.1858456979111D+00
   124  1.2300000000000D+00 -3.4749619917146D-01  1.1361484164039D+00
   125  1.2400000000000D+00 -3.4267688333540D-01  1.0835008199611D+00
   126  1.2500000000000D+00 -3.3677116217978D-01  1.0280177611455D+00
   127  1.2600000000000D+00 -3.2982404977596D-01  9.6983252124295D-01
   128  1.2700000000000D+00 -3.2188316968969D-01  9.0909818630443D-01
   129  1.2800000000000D+00 -3.1299893203425D-01  8.4598910260341D-01
   130  1.2900000000000D+00 -3.0322474956122D-01  7.8070238755478D-01
   131  1.3000000000000D+00 -2.9261728718078D-01  7.1345945646241D-01
   132  1.3100000000000D+00 -2.8123673642304D-01  6.4450751207362D-01
   133  1.3200000000000D+00 -2.6914710732444D-01  5.7412094837606D-01
   134  1.3300000000000D+00 -2.5641652390628D-01  5.0260259057910D-01
   135  1.3400000000000D+00 -2.4311750670821D-01  4.3028468074317D-01
   136  1.3500000000000D+00 -2.2932722778391D-01  3.5752952746188D-01
   137  1.3600000000000D+00 -2.1512771194322D-01  2.8472968408268D-01
   138  1.3700000000000D+00 -2.0060595997781D-01  2.1230752902743D-01
   139  1.3800000000000D+00 -1.8585396684877D-01  1.4071410897029D-01
   140  1.3900000000000D+00 -1.7096859359772D-01  7.0427039710272D-02
   141  1.4000000000000D+00 -1.5605126184778D-01  1.9473064338061D-03
   142  1.4100000000000D+00 -1.4120742150377D-01 -6.4205279574674D-02
   143  1.4200000000000D+00 -1.2654573942989D-01 -1.2749822402044D-01
   144  1.4300000000000D+00 -1.1217696354492D-01 -1.8739431756282D-01
   145  1.4400000000000D+00 -9.8212383182629D-02 -2.4336181014673D-01
   146  1.4500000000000D+00 -8.4761833852324D-02 -2.9488704611991D-01
   147  1.4600000000000D+00 -7.1931123218566D-02 -3.4149019666002D-01
   148  1.4700000000000D+00 -5.9819030142124D-02 -3.8274304794480D-01
   149  1.4800000000000D+00 -4.8512821723279D-02 -4.1829515786599D-01
   150  1.4900000000000D+00 -3.8085562325119D-02 -4.4788846734417D-01
   151  1.5000000000000D+00 -2.8586825805139D-02 -4.7141074389984D-01
   152  1.5100000000000D+00 -2.0036936933755D-02 -4.8892720679510D-01
   153  1.5200000000000D+00 -1.2432669701880D-02 -5.0063914727842D-01
   154  1.5300000000000D+00 -5.7529075459513D-03 -5.0684541213384D-01
   155  1.5400000000000D+00  3.3546030339499D-05 -5.0789271863961D-01
   156  1.5500000000000D+00  4.9624059265800D-03 -5.0414177411787D-01
   157  1.5600000000000D+00  9.0608091220322D-03 -4.9589130176819D-01
   158  1.5700000000000D+00  1.2358587741020D-02 -4.8344516863140D-01
   159  1.5800000000000D+00  1.4915378980025D-02 -4.6727456697303D-01
   160  1.5900000000000D+00  1.6798450632804D-02 -4.4788580979271D-01
   161  1.6000000000000D+00  1.8062572841095D-02 -4.2570018756130D-01
   162  1.6100000000000D+00  1.8763584015802D-02 -4.0113623285119D-01
   163  1.6200000000000D+00  1.8962773892053D-02 -3.7463696189360D-01
   164  1.6300000000000D+00  1.8722160431887D-02 -3.4664206449952D-01
   165  1.6400000000000D+00  1.8103941803402D-02 -3.1758528158210D-01
   166  1.6500000000000D+00  1.7170320251407D-02 -2.8789409920121D-01
   167  1.6600000000000D+00  1.5982684981749D-02 -2.5798554196029D-01
   168  1.6700000000000D+00  1.4600985411318D-02 -2.2826310857813D-01
   169  1.6800000000000D+00  1.3083088975957D-02 -1.9911360163755D-01
   170  1.6900000000000D+00  1.1484170264485D-02 -1.7090412413036D-01
   171  1.7000000000000D+00  9.8561296005921D-03 -1.4397922647386D-01
   172  1.7100000000000D+00  8.2470468304717D-03 -1.1865823163775D-01
   173  1.7200000000000D+00  6.7006736264253D-03 -9.5232754319794D-02
   174  1.7300000000000D+00  5.2559702201366D-03 -7.3964442607389D-02
   175  1.7400000000000D+00  3.9470782232349D-03 -5.5088262089506D-02
   176  1.7500000000000D+00  2.8021006060107D-03 -3.8799079637479D-02
   177  1.7600000000000D+00  1.8395013597999D-03 -2.5207359609180D-02
   178  1.7700000000000D+00  1.0755831962405D-03 -1.4441831902777D-02
   179  1.7800000000000D+00  5.3952377866844D-04 -6.8290560036599D-03
   180  1.7900000000000D+00  2.3633028238255D-04 -2.4210813824065D-03
   181  1.8000000000000D+00  9.3752852074395D-05 -4.2594213416221D-04
   182  1.8100000000000D+00  2.8004816716306D-05  1.3469959854294D-04
   183  1.8200000000000D+00  2.7239833575705D-06  4.5802898084618D-05
   184  1.8300000000000D+00 -2.0486714474998D-06 -6.5300872969780D-05
   185  1.8400000000000D+00 -6.2103987947440D-07 -3.6498273021141D-05
   186  1.8500000000000D+00  6.3244303946687D-07  8.5289636548018D-06
   187  1.8600000000000D+00  5.0738031437640D-07  8.4450764348869D-06
   188  1.8700000000000D+00 -1.3709201959846D-07  5.4807833930351D-07
   189  1.8800000000000D+00 -2.2683960382249D-07  9.0687899788362D-07
   190  1.8900000000000D+00  0.0000000000000D+00  0.0000000000000D+00
   191  1.9000000000000D+00  0.0000000000000D+00  0.0000000000000D+00
   192  1.9100000000000D+00  0.0000000000000D+00  0.0000000000000D+00
   193  1.9200000000000D+00  0.0000000000000D+00  0.0000000000000D+00
   194  1.9300000000000D+00  0.0000000000000D+00  0.0000000000000D+00
   195  1.9400000000000D+00  0.0000000000000D+00  0.0000000000000D+00
   196  1.9500000000000D+00  0.0000000000000D+00  0.0000000000000D+00
   197  1.9600000000000D+00  0.0000000000000D+00  0.0000000000000D+00
   198  1.9700000000000D+00  0.0000000000000D+00  0.0000000000000D+00
   199  1.9800000000000D+00  0.0000000000000D+00  0.0000000000000D+00
   200  1.9900000000000D+00  0.0000000000000D+00  0.0000000000000D+00
   201  2.0000000000000D+00  0.0000000000000D+00  0.0000000000000D+00
   202  2.0100000000000D+00  0.0000000000000D+00  0.0000000000000D+00
   203  2.0200000000000D+00  0.0000000000000D+00  0.0000000000000D+00
   204  2.0300000000000D+00  0.0000000000000D+00  0.0000000000000D+00
   205  2.0400000000000D+00  0.0000000000000D+00  0.0000000000000D+00
   206  2.0500000000000D+00  0.0000000000000D+00  0.0000000000000D+00
   207  2.0600000000000D+00  0.0000000000000D+00  0.0000000000000D+00
   208  2.0700000000000D+00  0.0000000000000D+00  0.0000000000000D+00
   209  2.0800000000000D+00  0.0000000000000D+00  0.0000000000000D+00
   210  2.0900000000000D+00  0.0000000000000D+00  0.0000000000000D+00
   211  2.1000000000000D+00  0.0000000000000D+00  0.0000000000000D+00
   212  2.1100000000000D+00  0.0000000000000D+00  0.0000000000000D+00
   213  2.1200000000000D+00  0.0000000000000D+00  0.0000000000000D+00
   214  2.1300000000000D+00  0.0000000000000D+00  0.0000000000000D+00
   215  2.1400000000000D+00  0.0000000000000D+00  0.0000000000000D+00
   216  2.1500000000000D+00  0.0000000000000D+00  0.0000000000000D+00
   217  2.1600000000000D+00  0.0000000000000D+00  0.0000000000000D+00
   218  2.1700000000000D+00  0.0000000000000D+00  0.0000000000000D+00
   219  2.1800000000000D+00  0.0000000000000D+00  0.0000000000000D+00
   220  2.1900000000000D+00  0.0000000000000D+00  0.0000000000000D+00
   221  2.2000000000000D+00  0.0000000000000D+00  0.0000000000000D+00
   222  2.2100000000000D+00  0.0000000000000D+00  0.0000000000000D+00
   223  2.2200000000000D+00  0.0000000000000D+00  0.0000000000000D+00
   224  2.2300000000000D+00  0.0000000000000D+00  0.0000000000000D+00
   225  2.2400000000000D+00  0.0000000000000D+00  0.0000000000000D+00
   226  2.2500000000000D+00  0.0000000000000D+00  0.0000000000000D+00
   227  2.2600000000000D+00  0.0000000000000D+00  0.0000000000000D+00
   228  2.2700000000000D+00  0.0000000000000D+00  0.0000000000000D+00
   229  2.2800000000000D+00  0.0000000000000D+00  0.0000000000000D+00
   230  2.2900000000000D+00  0.0000000000000D+00  0.0000000000000D+00
   231  2.3000000000000D+00  0.0000000000000D+00  0.0000000000000D+00
   232  2.3100000000000D+00  0.0000000000000D+00  0.0000000000000D+00
   233  2.3200000000000D+00  0.0000000000000D+00  0.0000000000000D+00
   234  2.3300000000000D+00  0.0000000000000D+00  0.0000000000000D+00
   235  2.3400000000000D+00  0.0000000000000D+00  0.0000000000000D+00
   236  2.3500000000000D+00  0.0000000000000D+00  0.0000000000000D+00
   237  2.3600000000000D+00  0.0000000000000D+00  0.0000000000000D+00
   238  2.3700000000000D+00  0.0000000000000D+00  0.0000000000000D+00
   239  2.3800000000000D+00  0.0000000000000D+00  0.0000000000000D+00
   240  2.3900000000000D+00  0.0000000000000D+00  0.0000000000000D+00
   241  2.4000000000000D+00  0.0000000000000D+00  0.0000000000000D+00
   242  2.4100000000000D+00  0.0000000000000D+00  0.0000000000000D+00
   243  2.4200000000000D+00  0.0000000000000D+00  0.0000000000000D+00
   244  2.4300000000000D+00  0.0000000000000D+00  0.0000000000000D+00
   245  2.4400000000000D+00  0.0000000000000D+00  0.0000000000000D+00
   246  2.4500000000000D+00  0.0000000000000D+00  0.0000000000000D+00
   247  2.4600000000000D+00  0.0000000000000D+00  0.0000000000000D+00
   248  2.4700000000000D+00  0.0000000000000D+00  0.0000000000000D+00
   249  2.4800000000000D+00  0.0000000000000D+00  0.0000000000000D+00
   250  2.4900000000000D+00  0.0000000000000D+00  0.0000000000000D+00
   251  2.5000000000000D+00  0.0000000000000D+00  0.0000000000000D+00
   252  2.5100000000000D+00  0.0000000000000D+00  0.0000000000000D+00
   253  2.5200000000000D+00  0.0000000000000D+00  0.0000000000000D+00
   254  2.5300000000000D+00  0.0000000000000D+00  0.0000000000000D+00
   255  2.5400000000000D+00  0.0000000000000D+00  0.0000000000000D+00
   256  2.5500000000000D+00  0.0000000000000D+00  0.0000000000000D+00
   257  2.5600000000000D+00  0.0000000000000D+00  0.0000000000000D+00
   258  2.5700000000000D+00  0.0000000000000D+00  0.0000000000000D+00
   259  2.5800000000000D+00  0.0000000000000D+00  0.0000000000000D+00
   260  2.5900000000000D+00  0.0000000000000D+00  0.0000000000000D+00
   261  2.6000000000000D+00  0.0000000000000D+00  0.0000000000000D+00
   262  2.6100000000000D+00  0.0000000000000D+00  0.0000000000000D+00
   263  2.6200000000000D+00  0.0000000000000D+00  0.0000000000000D+00
   264  2.6300000000000D+00  0.0000000000000D+00  0.0000000000000D+00
   265  2.6400000000000D+00  0.0000000000000D+00  0.0000000000000D+00
   266  2.6500000000000D+00  0.0000000000000D+00  0.0000000000000D+00
   267  2.6600000000000D+00  0.0000000000000D+00  0.0000000000000D+00
   268  2.6700000000000D+00  0.0000000000000D+00  0.0000000000000D+00
   269  2.6800000000000D+00  0.0000000000000D+00  0.0000000000000D+00
   270  2.6900000000000D+00  0.0000000000000D+00  0.0000000000000D+00
   271  2.7000000000000D+00  0.0000000000000D+00  0.0000000000000D+00
   272  2.7100000000000D+00  0.0000000000000D+00  0.0000000000000D+00
   273  2.7200000000000D+00  0.0000000000000D+00  0.0000000000000D+00
   274  2.7300000000000D+00  0.0000000000000D+00  0.0000000000000D+00
   275  2.7400000000000D+00  0.0000000000000D+00  0.0000000000000D+00
   276  2.7500000000000D+00  0.0000000000000D+00  0.0000000000000D+00
   277  2.7600000000000D+00  0.0000000000000D+00  0.0000000000000D+00
   278  2.7700000000000D+00  0.0000000000000D+00  0.0000000000000D+00
   279  2.7800000000000D+00  0.0000000000000D+00  0.0000000000000D+00
   280  2.7900000000000D+00  0.0000000000000D+00  0.0000000000000D+00
   281  2.8000000000000D+00  0.0000000000000D+00  0.0000000000000D+00
   282  2.8100000000000D+00  0.0000000000000D+00  0.0000000000000D+00
   283  2.8200000000000D+00  0.0000000000000D+00  0.0000000000000D+00
   284  2.8300000000000D+00  0.0000000000000D+00  0.0000000000000D+00
   285  2.8400000000000D+00  0.0000000000000D+00  0.0000000000000D+00
   286  2.8500000000000D+00  0.0000000000000D+00  0.0000000000000D+00
   287  2.8600000000000D+00  0.0000000000000D+00  0.0000000000000D+00
   288  2.8700000000000D+00  0.0000000000000D+00  0.0000000000000D+00
   289  2.8800000000000D+00  0.0000000000000D+00  0.0000000000000D+00
   290  2.8900000000000D+00  0.0000000000000D+00  0.0000000000000D+00
   291  2.9000000000000D+00  0.0000000000000D+00  0.0000000000000D+00
   292  2.9100000000000D+00  0.0000000000000D+00  0.0000000000000D+00
   293  2.9200000000000D+00  0.0000000000000D+00  0.0000000000000D+00
   294  2.9300000000000D+00  0.0000000000000D+00  0.0000000000000D+00
   295  2.9400000000000D+00  0.0000000000000D+00  0.0000000000000D+00
   296  2.9500000000000D+00  0.0000000000000D+00  0.0000000000000D+00
   297  2.9600000000000D+00  0.0000000000000D+00  0.0000000000000D+00
   298  2.9700000000000D+00  0.0000000000000D+00  0.0000000000000D+00
   299  2.9800000000000D+00  0.0000000000000D+00  0.0000000000000D+00
   300  2.9900000000000D+00  0.0000000000000D+00  0.0000000000000D+00
   301  3.0000000000000D+00  0.0000000000000D+00  0.0000000000000D+00
   302  3.0100000000000D+00  0.0000000000000D+00  0.0000000000000D+00
   303  3.0200000000000D+00  0.0000000000000D+00  0.0000000000000D+00
   304  3.0300000000000D+00  0.0000000000000D+00  0.0000000000000D+00
   305  3.0400000000000D+00  0.0000000000000D+00  0.0000000000000D+00
   306  3.0500000000000D+00  0.0000000000000D+00  0.0000000000000D+00
   307  3.0600000000000D+00  0.0000000000000D+00  0.0000000000000D+00
   308  3.0700000000000D+00  0.0000000000000D+00  0.0000000000000D+00
   309  3.0800000000000D+00  0.0000000000000D+00  0.0000000000000D+00
   310  3.0900000000000D+00  0.0000000000000D+00  0.0000000000000D+00
   311  3.1000000000000D+00  0.0000000000000D+00  0.0000000000000D+00
   312  3.1100000000000D+00  0.0000000000000D+00  0.0000000000000D+00
   313  3.1200000000000D+00  0.0000000000000D+00  0.0000000000000D+00
   314  3.1300000000000D+00  0.0000000000000D+00  0.0000000000000D+00
   315  3.1400000000000D+00  0.0000000000000D+00  0.0000000000000D+00
   316  3.1500000000000D+00  0.0000000000000D+00  0.0000000000000D+00
   317  3.1600000000000D+00  0.0000000000000D+00  0.0000000000000D+00
   318  3.1700000000000D+00  0.0000000000000D+00  0.0000000000000D+00
   319  3.1800000000000D+00  0.0000000000000D+00  0.0000000000000D+00
   320  3.1900000000000D+00  0.0000000000000D+00  0.0000000000000D+00
   321  3.2000000000000D+00  0.0000000000000D+00  0.0000000000000D+00
   322  3.2100000000000D+00  0.0000000000000D+00  0.0000000000000D+00
   323  3.2200000000000D+00  0.0000000000000D+00  0.0000000000000D+00
   324  3.2300000000000D+00  0.0000000000000D+00  0.0000000000000D+00
   325  3.2400000000000D+00  0.0000000000000D+00  0.0000000000000D+00
   326  3.2500000000000D+00  0.0000000000000D+00  0.0000000000000D+00
   327  3.2600000000000D+00  0.0000000000000D+00  0.0000000000000D+00
   328  3.2700000000000D+00  0.0000000000000D+00  0.0000000000000D+00
   329  3.2800000000000D+00  0.0000000000000D+00  0.0000000000000D+00
   330  3.2900000000000D+00  0.0000000000000D+00  0.0000000000000D+00
   331  3.3000000000000D+00  0.0000000000000D+00  0.0000000000000D+00
   332  3.3100000000000D+00  0.0000000000000D+00  0.0000000000000D+00
   333  3.3200000000000D+00  0.0000000000000D+00  0.0000000000000D+00
   334  3.3300000000000D+00  0.0000000000000D+00  0.0000000000000D+00
   335  3.3400000000000D+00  0.0000000000000D+00  0.0000000000000D+00
   336  3.3500000000000D+00  0.0000000000000D+00  0.0000000000000D+00
   337  3.3600000000000D+00  0.0000000000000D+00  0.0000000000000D+00
   338  3.3700000000000D+00  0.0000000000000D+00  0.0000000000000D+00
   339  3.3800000000000D+00  0.0000000000000D+00  0.0000000000000D+00
   340  3.3900000000000D+00  0.0000000000000D+00  0.0000000000000D+00
   341  3.4000000000000D+00  0.0000000000000D+00  0.0000000000000D+00
   342  3.4100000000000D+00  0.0000000000000D+00  0.0000000000000D+00
   343  3.4200000000000D+00  0.0000000000000D+00  0.0000000000000D+00
   344  3.4300000000000D+00  0.0000000000000D+00  0.0000000000000D+00
   345  3.4400000000000D+00  0.0000000000000D+00  0.0000000000000D+00
   346  3.4500000000000D+00  0.0000000000000D+00  0.0000000000000D+00
   347  3.4600000000000D+00  0.0000000000000D+00  0.0000000000000D+00
   348  3.4700000000000D+00  0.0000000000000D+00  0.0000000000000D+00
   349  3.4800000000000D+00  0.0000000000000D+00  0.0000000000000D+00
   350  3.4900000000000D+00  0.0000000000000D+00  0.0000000000000D+00
   351  3.5000000000000D+00  0.0000000000000D+00  0.0000000000000D+00
   352  3.5100000000000D+00  0.0000000000000D+00  0.0000000000000D+00
   353  3.5200000000000D+00  0.0000000000000D+00  0.0000000000000D+00
   354  3.5300000000000D+00  0.0000000000000D+00  0.0000000000000D+00
   355  3.5400000000000D+00  0.0000000000000D+00  0.0000000000000D+00
   356  3.5500000000000D+00  0.0000000000000D+00  0.0000000000000D+00
   357  3.5600000000000D+00  0.0000000000000D+00  0.0000000000000D+00
   358  3.5700000000000D+00  0.0000000000000D+00  0.0000000000000D+00
   359  3.5800000000000D+00  0.0000000000000D+00  0.0000000000000D+00
   360  3.5900000000000D+00  0.0000000000000D+00  0.0000000000000D+00
   361  3.6000000000000D+00  0.0000000000000D+00  0.0000000000000D+00
   362  3.6100000000000D+00  0.0000000000000D+00  0.0000000000000D+00
   363  3.6200000000000D+00  0.0000000000000D+00  0.0000000000000D+00
   364  3.6300000000000D+00  0.0000000000000D+00  0.0000000000000D+00
   365  3.6400000000000D+00  0.0000000000000D+00  0.0000000000000D+00
   366  3.6500000000000D+00  0.0000000000000D+00  0.0000000000000D+00
   367  3.6600000000000D+00  0.0000000000000D+00  0.0000000000000D+00
   368  3.6700000000000D+00  0.0000000000000D+00  0.0000000000000D+00
   369  3.6800000000000D+00  0.0000000000000D+00  0.0000000000000D+00
   370  3.6900000000000D+00  0.0000000000000D+00  0.0000000000000D+00
   371  3.7000000000000D+00  0.0000000000000D+00  0.0000000000000D+00
   372  3.7100000000000D+00  0.0000000000000D+00  0.0000000000000D+00
   373  3.7200000000000D+00  0.0000000000000D+00  0.0000000000000D+00
   374  3.7300000000000D+00  0.0000000000000D+00  0.0000000000000D+00
   375  3.7400000000000D+00  0.0000000000000D+00  0.0000000000000D+00
   376  3.7500000000000D+00  0.0000000000000D+00  0.0000000000000D+00
   377  3.7600000000000D+00  0.0000000000000D+00  0.0000000000000D+00
   378  3.7700000000000D+00  0.0000000000000D+00  0.0000000000000D+00
   379  3.7800000000000D+00  0.0000000000000D+00  0.0000000000000D+00
   380  3.7900000000000D+00  0.0000000000000D+00  0.0000000000000D+00
   381  3.8000000000000D+00  0.0000000000000D+00  0.0000000000000D+00
   382  3.8100000000000D+00  0.0000000000000D+00  0.0000000000000D+00
   383  3.8200000000000D+00  0.0000000000000D+00  0.0000000000000D+00
   384  3.8300000000000D+00  0.0000000000000D+00  0.0000000000000D+00
   385  3.8400000000000D+00  0.0000000000000D+00  0.0000000000000D+00
   386  3.8500000000000D+00  0.0000000000000D+00  0.0000000000000D+00
   387  3.8600000000000D+00  0.0000000000000D+00  0.0000000000000D+00
   388  3.8700000000000D+00  0.0000000000000D+00  0.0000000000000D+00
   389  3.8800000000000D+00  0.0000000000000D+00  0.0000000000000D+00
   390  3.8900000000000D+00  0.0000000000000D+00  0.0000000000000D+00
   391  3.9000000000000D+00  0.0000000000000D+00  0.0000000000000D+00
   392  3.9100000000000D+00  0.0000000000000D+00  0.0000000000000D+00
   393  3.9200000000000D+00  0.0000000000000D+00  0.0000000000000D+00
   394  3.9300000000000D+00  0.0000000000000D+00  0.0000000000000D+00
   395  3.9400000000000D+00  0.0000000000000D+00  0.0000000000000D+00
   396  3.9500000000000D+00  0.0000000000000D+00  0.0000000000000D+00
   397  3.9600000000000D+00  0.0000000000000D+00  0.0000000000000D+00
   398  3.9700000000000D+00  0.0000000000000D+00  0.0000000000000D+00
   399  3.9800000000000D+00  0.0000000000000D+00  0.0000000000000D+00
   400  3.9900000000000D+00  0.0000000000000D+00  0.0000000000000D+00
   401  4.0000000000000D+00  0.0000000000000D+00  0.0000000000000D+00
   402  4.0100000000000D+00  0.0000000000000D+00  0.0000000000000D+00
   403  4.0200000000000D+00  0.0000000000000D+00  0.0000000000000D+00
   404  4.0300000000000D+00  0.0000000000000D+00  0.0000000000000D+00
   405  4.0400000000000D+00  0.0000000000000D+00  0.0000000000000D+00
   406  4.0500000000000D+00  0.0000000000000D+00  0.0000000000000D+00
   407  4.0600000000000D+00  0.0000000000000D+00  0.0000000000000D+00
   408  4.0700000000000D+00  0.0000000000000D+00  0.0000000000000D+00
   409  4.0800000000000D+00  0.0000000000000D+00  0.0000000000000D+00
   410  4.0900000000000D+00  0.0000000000000D+00  0.0000000000000D+00
   411  4.1000000000000D+00  0.0000000000000D+00  0.0000000000000D+00
   412  4.1100000000000D+00  0.0000000000000D+00  0.0000000000000D+00
   413  4.1200000000000D+00  0.0000000000000D+00  0.0000000000000D+00
   414  4.1300000000000D+00  0.0000000000000D+00  0.0000000000000D+00
   415  4.1400000000000D+00  0.0000000000000D+00  0.0000000000000D+00
   416  4.1500000000000D+00  0.0000000000000D+00  0.0000000000000D+00
   417  4.1600000000000D+00  0.0000000000000D+00  0.0000000000000D+00
   418  4.1700000000000D+00  0.0000000000000D+00  0.0000000000000D+00
   419  4.1800000000000D+00  0.0000000000000D+00  0.0000000000000D+00
   420  4.1900000000000D+00  0.0000000000000D+00  0.0000000000000D+00
   421  4.2000000000000D+00  0.0000000000000D+00  0.0000000000000D+00
   422  4.2100000000000D+00  0.0000000000000D+00  0.0000000000000D+00