Cl    ONCVPSP-3.3.0  r_core=   1.40128   1.56009   1.80017
     17.0000     15.0000      220408    zatom,zion,pspd
     8       2   2     4   600     0    pspcod,pspxc,lmax,lloc,mmax,r2well
  5.99000000  0.00000000  0.00000000    rchrg fchrg qchrg
     2     2     2     0     0    nproj
     1     1           extension_switch
   0                        -7.6388432650726D+00 -1.7784817087424D+00
     1  0.0000000000000D+00 -9.4664720506898D-11  1.0396746796815D-09
     2  1.0000000000000D-02  7.8749570973726D-02 -6.3579976519966D-02
     3  2.0000000000000D-02  1.5730725857198D-01 -1.2679047873618D-01
     4  3.0000000000000D-02  2.3548184052532D-01 -1.8926434875123D-01
     5  4.0000000000000D-02  3.1308341363929D-01 -2.5063904037086D-01
     6  5.0000000000000D-02  3.8992404551350D-01 -3.1055887245182D-01
     7  6.0000000000000D-02  4.6581841694686D-01 -3.6867721999681D-01
     8  7.0000000000000D-02  5.4058445203667D-01 -4.2465862348634D-01
     9  8.0000000000000D-02  6.1404393307427D-01 -4.7818079797721D-01
    10  9.0000000000000D-02  6.8602309745599D-01 -5.2893652476764D-01
    11  1.0000000000000D-01  7.5635321396395D-01 -5.7663540991143D-01
    12  1.1000000000000D-01  8.2487113592624D-01 -6.2100549553595D-01
    13  1.2000000000000D-01  8.9141982893646D-01 -6.6179471175557D-01
    14  1.3000000000000D-01  9.5584887099796D-01 -6.9877215894803D-01
    15  1.4000000000000D-01  1.0180149231558D+00 -7.3172921224462D-01
    16  1.5000000000000D-01  1.0777821688860D+00 -7.6048044224755D-01
    17  1.6000000000000D-01  1.1350227207274D+00 -7.8486434819605D-01
    18  1.7000000000000D-01  1.1896169928594D+00 -8.0474390202468D-01
    19  1.8000000000000D-01  1.2414540385517D+00 -8.2000690396128D-01
    20  1.9000000000000D-01  1.2904318516341D+00 -8.3056615246455D-01
    21  2.0000000000000D-01  1.3364576313532D+00 -8.3635943337245D-01
    22  2.1000000000000D-01  1.3794480101970D+00 -8.3734933509189D-01
    23  2.2000000000000D-01  1.4193292444771D+00 -8.3352289848032D-01
    24  2.3000000000000D-01  1.4560373676566D+00 -8.2489111172446D-01
    25  2.4000000000000D-01  1.4895183065981D+00 -8.1148826198814D-01
    26  2.5000000000000D-01  1.5197279610845D+00 -7.9337115686012D-01
    27  2.6000000000000D-01  1.5466322471236D+00 -7.7061822966695D-01
    28  2.7000000000000D-01  1.5702071046982D+00 -7.4332854351310D-01
    29  2.8000000000000D-01  1.5904384707514D+00 -7.1162070946111D-01
    30  2.9000000000000D-01  1.6073222183138D+00 -6.7563173456387D-01
    31  3.0000000000000D-01  1.6208640627782D+00 -6.3551581550790D-01
    32  3.1000000000000D-01  1.6310794364080D+00 -5.9144309342426D-01
    33  3.2000000000000D-01  1.6379933322332D+00 -5.4359838497898D-01
    34  3.3000000000000D-01  1.6416401185400D+00 -4.9217990417984D-01
    35  3.4000000000000D-01  1.6420633251920D+00 -4.3739798844421D-01
    36  3.5000000000000D-01  1.6393154030492D+00 -3.7947384138420D-01
    37  3.6000000000000D-01  1.6334574577580D+00 -3.1863830349950D-01
    38  3.7000000000000D-01  1.6245589591861D+00 -2.5513066055225D-01
    39  3.8000000000000D-01  1.6126974277693D+00 -1.8919749785731D-01
    40  3.9000000000000D-01  1.5979580990173D+00 -1.2109160708538D-01
    41  4.0000000000000D-01  1.5804335674099D+00 -5.1070950476264D-02
    42  4.1000000000000D-01  1.5602234108836D+00  2.0602314373280D-02
    43  4.2000000000000D-01  1.5374337970891D+00  9.3662747715081D-02
    44  4.3000000000000D-01  1.5121770725714D+00  1.6784247911702D-01
    45  4.4000000000000D-01  1.4845713360008D+00  2.4287199909675D-01
    46  4.5000000000000D-01  1.4547399965687D+00  3.1848089436657D-01
    47  4.6000000000000D-01  1.4228113186433D+00  3.9439853155056D-01
    48  4.7000000000000D-01  1.3889179537820D+00  4.7035469549940D-01
    49  4.8000000000000D-01  1.3531964611948D+00  5.4608018941642D-01
    50  4.9000000000000D-01  1.3157868177689D+00  6.2130740489843D-01
    51  5.0000000000000D-01  1.2768319187881D+00  6.9577087066924D-01
    52  5.1000000000000D-01  1.2364770705131D+00  7.6920778922734D-01
    53  5.2000000000000D-01  1.1948694758356D+00  8.4135857083229D-01
    54  5.3000000000000D-01  1.1521577142736D+00  9.1196737421075D-01
    55  5.4000000000000D-01  1.1084912176434D+00  9.8078266307077D-01
    56  5.5000000000000D-01  1.0640197428159D+00  1.0475577869763D+00
    57  5.6000000000000D-01  1.0188928430544D+00  1.1120515943573D+00
    58  5.7000000000000D-01  9.7325933951632D-01  1.1740290844312D+00
    59  5.8000000000000D-01  9.2726679460298D-01  1.2332621035992D+00
    60  5.9000000000000D-01  8.8106098893728D-01  1.2895300904824D+00
    61  6.0000000000000D-01  8.3478540385294D-01  1.3426208721931D+00
    62  6.1000000000000D-01  7.8858071137728D-01  1.3923315127423D+00
    63  6.2000000000000D-01  7.4258427378622D-01  1.4384692126636D+00
    64  6.3000000000000D-01  6.9692965489961D-01  1.4808522570613D+00
    65  6.4000000000000D-01  6.5174614536558D-01  1.5193110073627D+00
    66  6.5000000000000D-01  6.0715830425165D-01  1.5536889301313D+00
    67  6.6000000000000D-01  5.6328551931396D-01  1.5838436544180D+00
    68  6.7000000000000D-01  5.2024158835357D-01  1.6096480473066D+00
    69  6.8000000000000D-01  4.7813432408549D-01  1.6309912956109D+00
    70  6.9000000000000D-01  4.3706518494203D-01  1.6477799801305D+00
    71  7.0000000000000D-01  3.9712893420279D-01  1.6599391274966D+00
    72  7.1000000000000D-01  3.5841332978925D-01  1.6674132234828D+00
    73  7.2000000000000D-01  3.2099884698006D-01  1.6701671707436D+00
    74  7.3000000000000D-01  2.8495843619227D-01  1.6681871732998D+00
    75  7.4000000000000D-01  2.5035731783525D-01  1.6614815297350D+00
    76  7.5000000000000D-01  2.1725281607396D-01  1.6500813170271D+00
    77  7.6000000000000D-01  1.8569423314093D-01  1.6340409472125D+00
    78  7.7000000000000D-01  1.5572276560949D-01  1.6134385796889D+00
    79  7.8000000000000D-01  1.2737146378639D-01  1.5883763728976D+00
    80  7.9000000000000D-01  1.0066523510256D-01  1.5589805603866D+00
    81  8.0000000000000D-01  7.5620892076630D-02  1.5254013378390D+00
    82  8.1000000000000D-01  5.2247245101419D-02  1.4878125495288D+00
    83  8.2000000000000D-01  3.0545239960179D-02  1.4464111648335D+00
    84  8.3000000000000D-01  1.0508139622454D-02  1.4014165378465D+00
    85  8.4000000000000D-01 -7.8782505006458D-03  1.3530694457861D+00
    86  8.5000000000000D-01 -2.4635315036684D-02  1.3016309047262D+00
    87  8.6000000000000D-01 -3.9791320441380D-02  1.2473807641642D+00
    88  8.7000000000000D-01 -5.3381068047306D-02  1.1906160850373D+00
    89  8.8000000000000D-01 -6.5445510691382D-02  1.1316493089545D+00
    90  8.9000000000000D-01 -7.6031335598641D-02  1.0708062295872D+00
    91  9.0000000000000D-01 -8.5190516542322D-02  1.0084237803085D+00
    92  9.1000000000000D-01 -9.2979838618527D-02  9.4484765520243D-01
    93  9.2000000000000D-01 -9.9460399271213D-02  8.8042978351808D-01
    94  9.3000000000000D-01 -1.0469708946549D-01  8.1552568035882D-01
    95  9.4000000000000D-01 -1.0875805913776D-01  7.5049169891220D-01
    96  9.5000000000000D-01 -1.1171417124264D-01  6.8568221175809D-01
    97  9.6000000000000D-01 -1.1363844886601D-01  6.2144675070656D-01
    98  9.7000000000000D-01 -1.1460551997880D-01  5.5812713617757D-01
    99  9.8000000000000D-01 -1.1469106446319D-01  4.9605462830623D-01
   100  9.9000000000000D-01 -1.1397126805282D-01  4.3554713271779D-01
   101  1.0000000000000D+00 -1.1252228778246D-01  3.7690649421633D-01
   102  1.0100000000000D+00 -1.1041973345735D-01  3.2041591152634D-01
   103  1.0200000000000D+00 -1.0773816950170D-01  2.6633750560800D-01
   104  1.0300000000000D+00 -1.0455064135505D-01  2.1491007300539D-01
   105  1.0400000000000D+00 -1.0092823034203D-01  1.6634705416845D-01
   106  1.0500000000000D+00 -9.6939640655282D-02  1.2083474474286D-01
   107  1.0600000000000D+00 -9.2650821736240D-02  7.8530775248395D-02
   108  1.0700000000000D+00 -8.8124629016861D-02  3.9562882164962D-02
   109  1.0800000000000D+00 -8.3420525511938D-02  4.0279897797943D-03
   110  1.0900000000000D+00 -7.8594326353862D-02 -2.8008381028789D-02
   111  1.1000000000000D+00 -7.3697987872625D-02 -5.6512364855814D-02
   112  1.1100000000000D+00 -6.8779442329303D-02 -8.1481656559544D-02
   113  1.1200000000000D+00 -6.3882478958603D-02 -1.0294506443080D-01
   114  1.1300000000000D+00 -5.9046671374798D-02 -1.2096171250140D-01
   115  1.1400000000000D+00 -5.4307350946758D-02 -1.3561989660707D-01
   116  1.1500000000000D+00 -4.9695625179375D-02 -1.4703560374247D-01
   117  1.1600000000000D+00 -4.5238439747108D-02 -1.5535070765036D-01
   118  1.1700000000000D+00 -4.0958682180452D-02 -1.6073085926097D-01
   119  1.1800000000000D+00 -3.6875326857244D-02 -1.6336306923856D-01
   120  1.1900000000000D+00 -3.3003588292428D-02 -1.6345337697152D-01
   121  1.2000000000000D+00 -2.9355234819252D-02 -1.6122274040015D-01
   122  1.2100000000000D+00 -2.5938763648190D-02 -1.5690478540101D-01
   123  1.2200000000000D+00 -2.2758784410651D-02 -1.5075335685415D-01
   124  1.2300000000000D+00 -1.9818874380316D-02 -1.4300789361532D-01
   125  1.2400000000000D+00 -1.7120552018870D-02 -1.3390622968770D-01
   126  1.2500000000000D+00 -1.4659560181810D-02 -1.2373028028973D-01
   127  1.2600000000000D+00 -1.2430071560691D-02 -1.1275487350880D-01
   128  1.2700000000000D+00 -1.0425230709870D-02 -1.0124163858245D-01
   129  1.2800000000000D+00 -8.6362515335063D-03 -8.9450742396437D-02
   130  1.2900000000000D+00 -7.0531477557040D-03 -7.7632608888089D-02
   131  1.3000000000000D+00 -5.6650236791227D-03 -6.6025100437500D-02
   132  1.3100000000000D+00 -4.4603564463918D-03 -5.4850842060869D-02
   133  1.3200000000000D+00 -3.4272846092393D-03 -4.4314490202761D-02
   134  1.3300000000000D+00 -2.5538715957493D-03 -3.4600319916430D-02
   135  1.3400000000000D+00 -1.8283451662345D-03 -2.5870105417602D-02
   136  1.3500000000000D+00 -1.2393092860180D-03 -1.8261325231281D-02
   137  1.3600000000000D+00 -7.7614074026173D-04 -1.1889695603516D-02
   138  1.3700000000000D+00 -4.2770132709396D-04 -6.8209700670709D-03
   139  1.3800000000000D+00 -1.8529286126244D-04 -3.1238216655091D-03
   140  1.3900000000000D+00 -4.5585609688758D-05 -9.3059058664286D-04
   141  1.4000000000000D+00  9.0219756714993D-06 -3.3694820100636D-05
   142  1.4100000000000D+00  1.0768403169635D-05  9.4266122664289D-05
   143  1.4200000000000D+00 -1.3547001822808D-06 -1.3481179681786D-05
   144  1.4300000000000D+00 -2.1783389514090D-06 -2.3065869366484D-05
   145  1.4400000000000D+00  5.1444315616129D-07  4.7973864000405D-06
   146  1.4500000000000D+00  2.3310712716178D-07  2.2352231069721D-06
   147  1.4600000000000D+00 -3.2332731525828D-08 -3.7392970233207D-08
   148  1.4700000000000D+00  0.0000000000000D+00  0.0000000000000D+00
   149  1.4800000000000D+00  0.0000000000000D+00  0.0000000000000D+00
   150  1.4900000000000D+00  0.0000000000000D+00  0.0000000000000D+00
   151  1.5000000000000D+00  0.0000000000000D+00  0.0000000000000D+00
   152  1.5100000000000D+00  0.0000000000000D+00  0.0000000000000D+00
   153  1.5200000000000D+00  0.0000000000000D+00  0.0000000000000D+00
   154  1.5300000000000D+00  0.0000000000000D+00  0.0000000000000D+00
   155  1.5400000000000D+00  0.0000000000000D+00  0.0000000000000D+00
   156  1.5500000000000D+00  0.0000000000000D+00  0.0000000000000D+00
   157  1.5600000000000D+00  0.0000000000000D+00  0.0000000000000D+00
   158  1.5700000000000D+00  0.0000000000000D+00  0.0000000000000D+00
   159  1.5800000000000D+00  0.0000000000000D+00  0.0000000000000D+00
   160  1.5900000000000D+00  0.0000000000000D+00  0.0000000000000D+00
   161  1.6000000000000D+00  0.0000000000000D+00  0.0000000000000D+00
   162  1.6100000000000D+00  0.0000000000000D+00  0.0000000000000D+00
   163  1.6200000000000D+00  0.0000000000000D+00  0.0000000000000D+00
   164  1.6300000000000D+00  0.0000000000000D+00  0.0000000000000D+00
   165  1.6400000000000D+00  0.0000000000000D+00  0.0000000000000D+00
   166  1.6500000000000D+00  0.0000000000000D+00  0.0000000000000D+00
   167  1.6600000000000D+00  0.0000000000000D+00  0.0000000000000D+00
   168  1.6700000000000D+00  0.0000000000000D+00  0.0000000000000D+00
   169  1.6800000000000D+00  0.0000000000000D+00  0.0000000000000D+00
   170  1.6900000000000D+00  0.0000000000000D+00  0.0000000000000D+00
   171  1.7000000000000D+00  0.0000000000000D+00  0.0000000000000D+00
   172  1.7100000000000D+00  0.0000000000000D+00  0.0000000000000D+00
   173  1.7200000000000D+00  0.0000000000000D+00  0.0000000000000D+00
   174  1.7300000000000D+00  0.0000000000000D+00  0.0000000000000D+00
   175  1.7400000000000D+00  0.0000000000000D+00  0.0000000000000D+00
   176  1.7500000000000D+00  0.0000000000000D+00  0.0000000000000D+00
   177  1.7600000000000D+00  0.0000000000000D+00  0.0000000000000D+00
   178  1.7700000000000D+00  0.0000000000000D+00  0.0000000000000D+00
   179  1.7800000000000D+00  0.0000000000000D+00  0.0000000000000D+00
   180  1.7900000000000D+00  0.0000000000000D+00  0.0000000000000D+00
   181  1.8000000000000D+00  0.0000000000000D+00  0.0000000000000D+00
   182  1.8100000000000D+00  0.0000000000000D+00  0.0000000000000D+00
   183  1.8200000000000D+00  0.0000000000000D+00  0.0000000000000D+00
   184  1.8300000000000D+00  0.0000000000000D+00  0.0000000000000D+00
   185  1.8400000000000D+00  0.0000000000000D+00  0.0000000000000D+00
   186  1.8500000000000D+00  0.0000000000000D+00  0.0000000000000D+00
   187  1.8600000000000D+00  0.0000000000000D+00  0.0000000000000D+00
   188  1.8700000000000D+00  0.0000000000000D+00  0.0000000000000D+00
   189  1.8800000000000D+00  0.0000000000000D+00  0.0000000000000D+00
   190  1.8900000000000D+00  0.0000000000000D+00  0.0000000000000D+00
   191  1.9000000000000D+00  0.0000000000000D+00  0.0000000000000D+00
   192  1.9100000000000D+00  0.0000000000000D+00  0.0000000000000D+00
   193  1.9200000000000D+00  0.0000000000000D+00  0.0000000000000D+00
   194  1.9300000000000D+00  0.0000000000000D+00  0.0000000000000D+00
   195  1.9400000000000D+00  0.0000000000000D+00  0.0000000000000D+00
   196  1.9500000000000D+00  0.0000000000000D+00  0.0000000000000D+00
   197  1.9600000000000D+00  0.0000000000000D+00  0.0000000000000D+00
   198  1.9700000000000D+00  0.0000000000000D+00  0.0000000000000D+00
   199  1.9800000000000D+00  0.0000000000000D+00  0.0000000000000D+00
   200  1.9900000000000D+00  0.0000000000000D+00  0.0000000000000D+00
   201  2.0000000000000D+00  0.0000000000000D+00  0.0000000000000D+00
   202  2.0100000000000D+00  0.0000000000000D+00  0.0000000000000D+00
   203  2.0200000000000D+00  0.0000000000000D+00  0.0000000000000D+00
   204  2.0300000000000D+00  0.0000000000000D+00  0.0000000000000D+00
   205  2.0400000000000D+00  0.0000000000000D+00  0.0000000000000D+00
   206  2.0500000000000D+00  0.0000000000000D+00  0.0000000000000D+00
   207  2.0600000000000D+00  0.0000000000000D+00  0.0000000000000D+00
   208  2.0700000000000D+00  0.0000000000000D+00  0.0000000000000D+00
   209  2.0800000000000D+00  0.0000000000000D+00  0.0000000000000D+00
   210  2.0900000000000D+00  0.0000000000000D+00  0.0000000000000D+00
   211  2.1000000000000D+00  0.0000000000000D+00  0.0000000000000D+00
   212  2.1100000000000D+00  0.0000000000000D+00  0.0000000000000D+00
   213  2.1200000000000D+00  0.0000000000000D+00  0.0000000000000D+00
   214  2.1300000000000D+00  0.0000000000000D+00  0.0000000000000D+00
   215  2.1400000000000D+00  0.0000000000000D+00  0.0000000000000D+00
   216  2.1500000000000D+00  0.0000000000000D+00  0.0000000000000D+00
   217  2.1600000000000D+00  0.0000000000000D+00  0.0000000000000D+00
   218  2.1700000000000D+00  0.0000000000000D+00  0.0000000000000D+00
   219  2.1800000000000D+00  0.0000000000000D+00  0.0000000000000D+00
   220  2.1900000000000D+00  0.0000000000000D+00  0.0000000000000D+00
   221  2.2000000000000D+00  0.0000000000000D+00  0.0000000000000D+00
   222  2.2100000000000D+00  0.0000000000000D+00  0.0000000000000D+00
   223  2.2200000000000D+00  0.0000000000000D+00  0.0000000000000D+00
   224  2.2300000000000D+00  0.0000000000000D+00  0.0000000000000D+00
   225  2.2400000000000D+00  0.0000000000000D+00  0.0000000000000D+00
   226  2.2500000000000D+00  0.0000000000000D+00  0.0000000000000D+00
   227  2.2600000000000D+00  0.0000000000000D+00  0.0000000000000D+00
   228  2.2700000000000D+00  0.0000000000000D+00  0.0000000000000D+00
   229  2.2800000000000D+00  0.0000000000000D+00  0.0000000000000D+00
   230  2.2900000000000D+00  0.0000000000000D+00  0.0000000000000D+00
   231  2.3000000000000D+00  0.0000000000000D+00  0.0000000000000D+00
   232  2.3100000000000D+00  0.0000000000000D+00  0.0000000000000D+00
   233  2.3200000000000D+00  0.0000000000000D+00  0.0000000000000D+00
   234  2.3300000000000D+00  0.0000000000000D+00  0.0000000000000D+00
   235  2.3400000000000D+00  0.0000000000000D+00  0.0000000000000D+00
   236  2.3500000000000D+00  0.0000000000000D+00  0.0000000000000D+00
   237  2.3600000000000D+00  0.0000000000000D+00  0.0000000000000D+00
   238  2.3700000000000D+00  0.0000000000000D+00  0.0000000000000D+00
   239  2.3800000000000D+00  0.0000000000000D+00  0.0000000000000D+00
   240  2.3900000000000D+00  0.0000000000000D+00  0.0000000000000D+00
   241  2.4000000000000D+00  0.0000000000000D+00  0.0000000000000D+00
   242  2.4100000000000D+00  0.0000000000000D+00  0.0000000000000D+00
   243  2.4200000000000D+00  0.0000000000000D+00  0.0000000000000D+00
   244  2.4300000000000D+00  0.0000000000000D+00  0.0000000000000D+00
   245  2.4400000000000D+00  0.0000000000000D+00  0.0000000000000D+00
   246  2.4500000000000D+00  0.0000000000000D+00  0.0000000000000D+00
   247  2.4600000000000D+00  0.0000000000000D+00  0.0000000000000D+00
   248  2.4700000000000D+00  0.0000000000000D+00  0.0000000000000D+00
   249  2.4800000000000D+00  0.0000000000000D+00  0.0000000000000D+00
   250  2.4900000000000D+00  0.0000000000000D+00  0.0000000000000D+00
   251  2.5000000000000D+00  0.0000000000000D+00  0.0000000000000D+00
   252  2.5100000000000D+00  0.0000000000000D+00  0.0000000000000D+00
   253  2.5200000000000D+00  0.0000000000000D+00  0.0000000000000D+00
   254  2.5300000000000D+00  0.0000000000000D+00  0.0000000000000D+00
   255  2.5400000000000D+00  0.0000000000000D+00  0.0000000000000D+00
   256  2.5500000000000D+00  0.0000000000000D+00  0.0000000000000D+00
   257  2.5600000000000D+00  0.0000000000000D+00  0.0000000000000D+00
   258  2.5700000000000D+00  0.0000000000000D+00  0.0000000000000D+00
   259  2.5800000000000D+00  0.0000000000000D+00  0.0000000000000D+00
   260  2.5900000000000D+00  0.0000000000000D+00  0.0000000000000D+00
   261  2.6000000000000D+00  0.0000000000000D+00  0.0000000000000D+00
   262  2.6100000000000D+00  0.0000000000000D+00  0.0000000000000D+00
   263  2.6200000000000D+00  0.0000000000000D+00  0.0000000000000D+00
   264  2.6300000000000D+00  0.0000000000000D+00  0.0000000000000D+00
   265  2.6400000000000D+00  0.0000000000000D+00  0.0000000000000D+00
   266  2.6500000000000D+00  0.0000000000000D+00  0.0000000000000D+00
   267  2.6600000000000D+00  0.0000000000000D+00  0.0000000000000D+00
   268  2.6700000000000D+00  0.0000000000000D+00  0.0000000000000D+00
   269  2.6800000000000D+00  0.0000000000000D+00  0.0000000000000D+00
   270  2.6900000000000D+00  0.0000000000000D+00  0.0000000000000D+00
   271  2.7000000000000D+00  0.0000000000000D+00  0.0000000000000D+00
   272  2.7100000000000D+00  0.0000000000000D+00  0.0000000000000D+00
   273  2.7200000000000D+00  0.0000000000000D+00  0.0000000000000D+00
   274  2.7300000000000D+00  0.0000000000000D+00  0.0000000000000D+00
   275  2.7400000000000D+00  0.0000000000000D+00  0.0000000000000D+00
   276  2.7500000000000D+00  0.0000000000000D+00  0.0000000000000D+00
   277  2.7600000000000D+00  0.0000000000000D+00  0.0000000000000D+00
   278  2.7700000000000D+00  0.0000000000000D+00  0.0000000000000D+00
   279  2.7800000000000D+00  0.0000000000000D+00  0.0000000000000D+00
   280  2.7900000000000D+00  0.0000000000000D+00  0.0000000000000D+00
   281  2.8000000000000D+00  0.0000000000000D+00  0.0000000000000D+00
   282  2.8100000000000D+00  0.0000000000000D+00  0.0000000000000D+00
   283  2.8200000000000D+00  0.0000000000000D+00  0.0000000000000D+00
   284  2.8300000000000D+00  0.0000000000000D+00  0.0000000000000D+00
   285  2.8400000000000D+00  0.0000000000000D+00  0.0000000000000D+00
   286  2.8500000000000D+00  0.0000000000000D+00  0.0000000000000D+00
   287  2.8600000000000D+00  0.0000000000000D+00  0.0000000000000D+00
   288  2.8700000000000D+00  0.0000000000000D+00  0.0000000000000D+00
   289  2.8800000000000D+00  0.0000000000000D+00  0.0000000000000D+00
   290  2.8900000000000D+00  0.0000000000000D+00  0.0000000000000D+00
   291  2.9000000000000D+00  0.0000000000000D+00  0.0000000000000D+00
   292  2.9100000000000D+00  0.0000000000000D+00  0.0000000000000D+00
   293  2.9200000000000D+00  0.0000000000000D+00  0.0000000000000D+00
   294  2.9300000000000D+00  0.0000000000000D+00  0.0000000000000D+00
   295  2.9400000000000D+00  0.0000000000000D+00  0.0000000000000D+00
   296  2.9500000000000D+00  0.0000000000000D+00  0.0000000000000D+00
   297  2.9600000000000D+00  0.0000000000000D+00  0.0000000000000D+00
   298  2.9700000000000D+00  0.0000000000000D+00  0.0000000000000D+00
   299  2.9800000000000D+00  0.0000000000000D+00  0.0000000000000D+00
   300  2.9900000000000D+00  0.0000000000000D+00  0.0000000000000D+00
   301  3.0000000000000D+00  0.0000000000000D+00  0.0000000000000D+00
   302  3.0100000000000D+00  0.0000000000000D+00  0.0000000000000D+00
   303  3.0200000000000D+00  0.0000000000000D+00  0.0000000000000D+00
   304  3.0300000000000D+00  0.0000000000000D+00  0.0000000000000D+00
   305  3.0400000000000D+00  0.0000000000000D+00  0.0000000000000D+00
   306  3.0500000000000D+00  0.0000000000000D+00  0.0000000000000D+00
   307  3.0600000000000D+00  0.0000000000000D+00  0.0000000000000D+00
   308  3.0700000000000D+00  0.0000000000000D+00  0.0000000000000D+00
   309  3.0800000000000D+00  0.0000000000000D+00  0.0000000000000D+00
   310  3.0900000000000D+00  0.0000000000000D+00  0.0000000000000D+00
   311  3.1000000000000D+00  0.0000000000000D+00  0.0000000000000D+00
   312  3.1100000000000D+00  0.0000000000000D+00  0.0000000000000D+00
   313  3.1200000000000D+00  0.0000000000000D+00  0.0000000000000D+00
   314  3.1300000000000D+00  0.0000000000000D+00  0.0000000000000D+00
   315  3.1400000000000D+00  0.0000000000000D+00  0.0000000000000D+00
   316  3.1500000000000D+00  0.0000000000000D+00  0.0000000000000D+00
   317  3.1600000000000D+00  0.0000000000000D+00  0.0000000000000D+00
   318  3.1700000000000D+00  0.0000000000000D+00  0.0000000000000D+00
   319  3.1800000000000D+00  0.0000000000000D+00  0.0000000000000D+00
   320  3.1900000000000D+00  0.0000000000000D+00  0.0000000000000D+00
   321  3.2000000000000D+00  0.0000000000000D+00  0.0000000000000D+00
   322  3.2100000000000D+00  0.0000000000000D+00  0.0000000000000D+00
   323  3.2200000000000D+00  0.0000000000000D+00  0.0000000000000D+00
   324  3.2300000000000D+00  0.0000000000000D+00  0.0000000000000D+00
   325  3.2400000000000D+00  0.0000000000000D+00  0.0000000000000D+00
   326  3.2500000000000D+00  0.0000000000000D+00  0.0000000000000D+00
   327  3.2600000000000D+00  0.0000000000000D+00  0.0000000000000D+00
   328  3.2700000000000D+00  0.0000000000000D+00  0.0000000000000D+00
   329  3.2800000000000D+00  0.0000000000000D+00  0.0000000000000D+00
   330  3.2900000000000D+00  0.0000000000000D+00  0.0000000000000D+00
   331  3.3000000000000D+00  0.0000000000000D+00  0.0000000000000D+00
   332  3.3100000000000D+00  0.0000000000000D+00  0.0000000000000D+00
   333  3.3200000000000D+00  0.0000000000000D+00  0.0000000000000D+00
   334  3.3300000000000D+00  0.0000000000000D+00  0.0000000000000D+00
   335  3.3400000000000D+00  0.0000000000000D+00  0.0000000000000D+00
   336  3.3500000000000D+00  0.0000000000000D+00  0.0000000000000D+00
   337  3.3600000000000D+00  0.0000000000000D+00  0.0000000000000D+00
   338  3.3700000000000D+00  0.0000000000000D+00  0.0000000000000D+00
   339  3.3800000000000D+00  0.0000000000000D+00  0.0000000000000D+00
   340  3.3900000000000D+00  0.0000000000000D+00  0.0000000000000D+00
   341  3.4000000000000D+00  0.0000000000000D+00  0.0000000000000D+00
   342  3.4100000000000D+00  0.0000000000000D+00  0.0000000000000D+00
   343  3.4200000000000D+00  0.0000000000000D+00  0.0000000000000D+00
   344  3.4300000000000D+00  0.0000000000000D+00  0.0000000000000D+00
   345  3.4400000000000D+00  0.0000000000000D+00  0.0000000000000D+00
   346  3.4500000000000D+00  0.0000000000000D+00  0.0000000000000D+00
   347  3.4600000000000D+00  0.0000000000000D+00  0.0000000000000D+00
   348  3.4700000000000D+00  0.0000000000000D+00  0.0000000000000D+00
   349  3.4800000000000D+00  0.0000000000000D+00  0.0000000000000D+00
   350  3.4900000000000D+00  0.0000000000000D+00  0.0000000000000D+00
   351  3.5000000000000D+00  0.0000000000000D+00  0.0000000000000D+00
   352  3.5100000000000D+00  0.0000000000000D+00  0.0000000000000D+00
   353  3.5200000000000D+00  0.0000000000000D+00  0.0000000000000D+00
   354  3.5300000000000D+00  0.0000000000000D+00  0.0000000000000D+00
   355  3.5400000000000D+00  0.0000000000000D+00  0.0000000000000D+00
   356  3.5500000000000D+00  0.0000000000000D+00  0.0000000000000D+00
   357  3.5600000000000D+00  0.0000000000000D+00  0.0000000000000D+00
   358  3.5700000000000D+00  0.0000000000000D+00  0.0000000000000D+00
   359  3.5800000000000D+00  0.0000000000000D+00  0.0000000000000D+00
   360  3.5900000000000D+00  0.0000000000000D+00  0.0000000000000D+00
   361  3.6000000000000D+00  0.0000000000000D+00  0.0000000000000D+00
   362  3.6100000000000D+00  0.0000000000000D+00  0.0000000000000D+00
   363  3.6200000000000D+00  0.0000000000000D+00  0.0000000000000D+00
   364  3.6300000000000D+00  0.0000000000000D+00  0.0000000000000D+00
   365  3.6400000000000D+00  0.0000000000000D+00  0.0000000000000D+00
   366  3.6500000000000D+00  0.0000000000000D+00  0.0000000000000D+00
   367  3.6600000000000D+00  0.0000000000000D+00  0.0000000000000D+00
   368  3.6700000000000D+00  0.0000000000000D+00  0.0000000000000D+00
   369  3.6800000000000D+00  0.0000000000000D+00  0.0000000000000D+00
   370  3.6900000000000D+00  0.0000000000000D+00  0.0000000000000D+00
   371  3.7000000000000D+00  0.0000000000000D+00  0.0000000000000D+00
   372  3.7100000000000D+00  0.0000000000000D+00  0.0000000000000D+00
   373  3.7200000000000D+00  0.0000000000000D+00  0.0000000000000D+00
   374  3.7300000000000D+00  0.0000000000000D+00  0.0000000000000D+00
   375  3.7400000000000D+00  0.0000000000000D+00  0.0000000000000D+00
   376  3.7500000000000D+00  0.0000000000000D+00  0.0000000000000D+00
   377  3.7600000000000D+00  0.0000000000000D+00  0.0000000000000D+00
   378  3.7700000000000D+00  0.0000000000000D+00  0.0000000000000D+00
   379  3.7800000000000D+00  0.0000000000000D+00  0.0000000000000D+00
   380  3.7900000000000D+00  0.0000000000000D+00  0.0000000000000D+00
   381  3.8000000000000D+00  0.0000000000000D+00  0.0000000000000D+00
   382  3.8100000000000D+00  0.0000000000000D+00  0.0000000000000D+00
   383  3.8200000000000D+00  0.0000000000000D+00  0.0000000000000D+00
   384  3.8300000000000D+00  0.0000000000000D+00  0.0000000000000D+00
   385  3.8400000000000D+00  0.0000000000000D+00  0.0000000000000D+00
   386  3.8500000000000D+00  0.0000000000000D+00  0.0000000000000D+00
   387  3.8600000000000D+00  0.0000000000000D+00  0.0000000000000D+00
   388  3.8700000000000D+00  0.0000000000000D+00  0.0000000000000D+00
   389  3.8800000000000D+00  0.0000000000000D+00  0.0000000000000D+00
   390  3.8900000000000D+00  0.0000000000000D+00  0.0000000000000D+00
   391  3.9000000000000D+00  0.0000000000000D+00  0.0000000000000D+00
   392  3.9100000000000D+00  0.0000000000000D+00  0.0000000000000D+00
   393  3.9200000000000D+00  0.0000000000000D+00  0.0000000000000D+00
   394  3.9300000000000D+00  0.0000000000000D+00  0.0000000000000D+00
   395  3.9400000000000D+00  0.0000000000000D+00  0.0000000000000D+00
   396  3.9500000000000D+00  0.0000000000000D+00  0.0000000000000D+00
   397  3.9600000000000D+00  0.0000000000000D+00  0.0000000000000D+00
   398  3.9700000000000D+00  0.0000000000000D+00  0.0000000000000D+00
   399  3.9800000000000D+00  0.0000000000000D+00  0.0000000000000D+00
   400  3.9900000000000D+00  0.0000000000000D+00  0.0000000000000D+00
   401  4.0000000000000D+00  0.0000000000000D+00  0.0000000000000D+00
   402  4.0100000000000D+00  0.0000000000000D+00  0.0000000000000D+00
   403  4.0200000000000D+00  0.0000000000000D+00  0.0000000000000D+00
   404  4.0300000000000D+00  0.0000000000000D+00  0.0000000000000D+00
   405  4.0400000000000D+00  0.0000000000000D+00  0.0000000000000D+00
   406  4.0500000000000D+00  0.0000000000000D+00  0.0000000000000D+00
   407  4.0600000000000D+00  0.0000000000000D+00  0.0000000000000D+00
   408  4.0700000000000D+00  0.0000000000000D+00  0.0000000000000D+00
   409  4.0800000000000D+00  0.0000000000000D+00  0.0000000000000D+00
   410  4.0900000000000D+00  0.0000000000000D+00  0.0000000000000D+00
   411  4.1000000000000D+00  0.0000000000000D+00  0.0000000000000D+00
   412  4.1100000000000D+00  0.0000000000000D+00  0.0000000000000D+00
   413  4.1200000000000D+00  0.0000000000000D+00  0.0000000000000D+00
   414  4.1300000000000D+00  0.0000000000000D+00  0.0000000000000D+00
   415  4.1400000000000D+00  0.0000000000000D+00  0.0000000000000D+00
   416  4.1500000000000D+00  0.0000000000000D+00  0.0000000000000D+00
   417  4.1600000000000D+00  0.0000000000000D+00  0.0000000000000D+00
   418  4.1700000000000D+00  0.0000000000000D+00  0.0000000000000D+00
   419  4.1800000000000D+00  0.0000000000000D+00  0.0000000000000D+00
   420  4.1900000000000D+00  0.0000000000000D+00  0.0000000000000D+00
   421  4.2000000000000D+00  0.0000000000000D+00  0.0000000000000D+00
   422  4.2100000000000D+00  0.0000000000000D+00  0.0000000000000D+00