Cl    ONCVPSP-3.3.0  r_core=   1.56009   1.35202   1.75774
     17.0000      7.0000      220408    zatom,zion,pspd
     8       2   2     4   600     0    pspcod,pspxc,lmax,lloc,mmax,r2well
  5.99000000  0.00000000  0.00000000    rchrg fchrg qchrg
     2     2     2     0     0    nproj
     1     1           extension_switch
   0                         8.1947580722885D+00  7.1568391331578D-01
     1  0.0000000000000D+00  4.7505660516478D-10 -2.7808053637557D-09
     2  1.0000000000000D-02  4.6472871228183D-02 -1.7820863644579D-02
     3  2.0000000000000D-02  9.2920921480030D-02 -3.5711557681690D-02
     4  3.0000000000000D-02  1.3931892258285D-01 -5.3739612275873D-02
     5  4.0000000000000D-02  1.8564083945816D-01 -7.1967999042630D-02
     6  5.0000000000000D-02  2.3185944526223D-01 -9.0452955815413D-02
     7  6.0000000000000D-02  2.7794595849402D-01 -1.0924193424236D-01
     8  7.0000000000000D-02  3.2386970882457D-01 -1.2837170782635D-01
     9  8.0000000000000D-02  3.6959783792682D-01 -1.4786667524111D-01
    10  9.0000000000000D-02  4.1509504100607D-01 -1.6773739037064D-01
    11  1.0000000000000D-01  4.6032335405830D-01 -1.8797934658609D-01
    12  1.1000000000000D-01  5.0524199112752D-01 -2.0857203836225D-01
    13  1.2000000000000D-01  5.4980723500719D-01 -2.2947831851847D-01
    14  1.3000000000000D-01  5.9397238394742D-01 -2.5064406423079D-01
    15  1.4000000000000D-01  6.3768775600496D-01 -2.7199815958985D-01
    16  1.5000000000000D-01  6.8090075172114D-01 -2.9345279696563D-01
    17  1.6000000000000D-01  7.2355597485078D-01 -3.1490409388002D-01
    18  1.7000000000000D-01  7.6559540990772D-01 -3.3623301657715D-01
    19  1.8000000000000D-01  8.0695865435684D-01 -3.5730659611404D-01
    20  1.9000000000000D-01  8.4758320238327D-01 -3.7797941766377D-01
    21  2.0000000000000D-01  8.8740477632161D-01 -3.9809535891811D-01
    22  2.1000000000000D-01  9.2635770104667D-01 -4.1748954908000D-01
    23  2.2000000000000D-01  9.6437531592416D-01 -4.3599051602498D-01
    24  2.3000000000000D-01  1.0013904183070D+00 -4.5342248585313D-01
    25  2.4000000000000D-01  1.0373357320518D+00 -4.6960779630745D-01
    26  2.5000000000000D-01  1.0721443941266D+00 -4.8436938345108D-01
    27  2.6000000000000D-01  1.1057504520946D+00 -4.9753329960990D-01
    28  2.7000000000000D-01  1.1380893650924D+00 -5.0893121992571D-01
    29  2.8000000000000D-01  1.1690985008773D+00 -5.1840289494123D-01
    30  2.9000000000000D-01  1.1987176216001D+00 -5.2579850745121D-01
    31  3.0000000000000D-01  1.2268893511616D+00 -5.3098089339347D-01
    32  3.1000000000000D-01  1.2535596173331D+00 -5.3382758879319D-01
    33  3.2000000000000D-01  1.2786780622574D+00 -5.3423266767798D-01
    34  3.3000000000000D-01  1.3021984154863D+00 -5.3210833940102D-01
    35  3.4000000000000D-01  1.3240788243475D+00 -5.2738627788584D-01
    36  3.5000000000000D-01  1.3442821371594D+00 -5.2001865987028D-01
    37  3.6000000000000D-01  1.3627761356055D+00 -5.0997889420181D-01
    38  3.7000000000000D-01  1.3795337134382D+00 -4.9726202953613D-01
    39  3.8000000000000D-01  1.3945329995811D+00 -4.8188483332456D-01
    40  3.9000000000000D-01  1.4077574246312D+00 -4.6388554065034D-01
    41  4.0000000000000D-01  1.4191957307042D+00 -4.4332327718819D-01
    42  4.1000000000000D-01  1.4288419255096D+00 -4.2027716621892D-01
    43  4.2000000000000D-01  1.4366951824628D+00 -3.9484513513224D-01
    44  4.3000000000000D-01  1.4427596895318D+00 -3.6714244209895D-01
    45  4.4000000000000D-01  1.4470444503513D+00 -3.3729994849809D-01
    46  4.5000000000000D-01  1.4495630419118D+00 -3.0546216715663D-01
    47  4.6000000000000D-01  1.4503333338272D+00 -2.7178512042044D-01
    48  4.7000000000000D-01  1.4493771747882D+00 -2.3643404545436D-01
    49  4.8000000000000D-01  1.4467200523136D+00 -1.9958098690374D-01
    50  4.9000000000000D-01  1.4423907323101D+00 -1.6140231909059D-01
    51  5.0000000000000D-01  1.4364208852237D+00 -1.2207624122460D-01
    52  5.1000000000000D-01  1.4288447057307D+00 -8.1780289656243D-02
    53  5.2000000000000D-01  1.4196985329420D+00 -4.0688910974910D-02
    54  5.3000000000000D-01  1.4090204780082D+00  1.0288612443663D-03
    55  5.4000000000000D-01  1.3968500657929D+00  4.3211585000066D-02
    56  5.5000000000000D-01  1.3832278969474D+00  8.5707405170977D-02
    57  5.6000000000000D-01  1.3681953362695D+00  1.2837583020276D-01
    58  5.7000000000000D-01  1.3517942326702D+00  1.7108925862053D-01
    59  5.8000000000000D-01  1.3340666754188D+00  2.1373422823013D-01
    60  5.9000000000000D-01  1.3150547905958D+00  2.5621236576065D-01
    61  6.0000000000000D-01  1.2948005808672D+00  2.9844102004983D-01
    62  6.1000000000000D-01  1.2733458108250D+00  3.4035356750574D-01
    63  6.2000000000000D-01  1.2507319392160D+00  3.8189938450070D-01
    64  6.3000000000000D-01  1.2270000984436D+00  4.2304348734660D-01
    65  6.4000000000000D-01  1.2021911207658D+00  4.6376584656973D-01
    66  6.5000000000000D-01  1.1763456096667D+00  5.0406038817526D-01
    67  6.6000000000000D-01  1.1495040539527D+00  5.4393370035497D-01
    68  6.7000000000000D-01  1.1217069812361D+00  5.8340346962038D-01
    69  6.8000000000000D-01  1.0929951466370D+00  6.2249667544014D-01
    70  6.9000000000000D-01  1.0634097517766D+00  6.6124757709491D-01
    71  7.0000000000000D-01  1.0329926884567D+00  6.9969553054205D-01
    72  7.1000000000000D-01  1.0017868008422D+00  7.3788267651645D-01
    73  7.2000000000000D-01  9.6983615949370D-01  7.7585154382102D-01
    74  7.3000000000000D-01  9.3718634024334D-01  8.1364261373709D-01
    75  7.4000000000000D-01  9.0388470068106D-01  8.5129189266153D-01
    76  7.5000000000000D-01  8.6998064691784D-01  8.8882854043358D-01
    77  7.6000000000000D-01  8.3552588332829D-01  9.2627260132824D-01
    78  7.7000000000000D-01  8.0057463814220D-01  9.6363288337607D-01
    79  7.8000000000000D-01  7.6518385805325D-01  1.0009050295322D+00
    80  7.9000000000000D-01  7.2941336543994D-01  1.0380698212920D+00
    81  8.0000000000000D-01  6.9332597234082D-01  1.0750917516803D+00
    82  8.1000000000000D-01  6.5698754598660D-01  1.1119179001860D+00
    83  8.2000000000000D-01  6.2046702145460D-01  1.1484771372371D+00
    84  8.3000000000000D-01  5.8383635786143D-01  1.1846796803144D+00
    85  8.4000000000000D-01  5.4717043544183D-01  1.2204170178330D+00
    86  8.5000000000000D-01  5.1054689184815D-01  1.2555622106340D+00
    87  8.6000000000000D-01  4.7404589704004D-01  1.2899705743895D+00
    88  8.7000000000000D-01  4.3774986719447D-01  1.3234807395581D+00
    89  8.8000000000000D-01  4.0174311913624D-01  1.3559160788475D+00
    90  8.9000000000000D-01  3.6611146784925D-01  1.3870864855671D+00
    91  9.0000000000000D-01  3.3094177066571D-01  1.4167904798712D+00
    92  9.1000000000000D-01  2.9632142271154D-01  1.4448176138973D+00
    93  9.2000000000000D-01  2.6233780912189D-01  1.4709511411468D+00
    94  9.3000000000000D-01  2.2907772038236D-01  1.4949709104154D+00
    95  9.4000000000000D-01  1.9662673790834D-01  1.5166564401215D+00
    96  9.5000000000000D-01  1.6506859762284D-01  1.5357901251323D+00
    97  9.6000000000000D-01  1.3448453982242D-01  1.5521605252133D+00
    98  9.7000000000000D-01  1.0495265402240D-01  1.5655656820890D+00
    99  9.8000000000000D-01  7.6547227738052D-02  1.5758164108244D+00
   100  9.9000000000000D-01  4.9338108284342D-02  1.5827395108601D+00
   101  1.0000000000000D+00  2.3390086649511D-02  1.5861808426337D+00
   102  1.0100000000000D+00 -1.2376876518889D-03  1.5860082170575D+00
   103  1.0200000000000D+00 -2.4492252160505D-02  1.5821140475717D+00
   104  1.0300000000000D+00 -4.6327329343080D-02  1.5744177176499D+00
   105  1.0400000000000D+00 -6.6703769183946D-02  1.5628676206429D+00
   106  1.0500000000000D+00 -8.5589929620272D-02  1.5474428335493D+00
   107  1.0600000000000D+00 -1.0296198880730D-01  1.5281543920623D+00
   108  1.0700000000000D+00 -1.1880418398426D-01  1.5050461394280D+00
   109  1.0800000000000D+00 -1.3310897285877D-01  1.4781951291383D+00
   110  1.0900000000000D+00 -1.4587711438235D-01  1.4477115676456D+00
   111  1.1000000000000D+00 -1.5711766695075D-01  1.4137382907238D+00
   112  1.1100000000000D+00 -1.6684790321294D-01  1.3764497743964D+00
   113  1.1200000000000D+00 -1.7509314171740D-01  1.3360506879413D+00
   114  1.1300000000000D+00 -1.8188649696964D-01  1.2927740048641D+00
   115  1.1400000000000D+00 -1.8726855044752D-01  1.2468786937251D+00
   116  1.1500000000000D+00 -1.9128694631238D-01  1.1986470179505D+00
   117  1.1600000000000D+00 -1.9399591636955D-01  1.1483814787170D+00
   118  1.1700000000000D+00 -1.9545574008536D-01  1.0964014424112D+00
   119  1.1800000000000D+00 -1.9573214610657D-01  1.0430394978118D+00
   120  1.1900000000000D+00 -1.9489566247881D-01  9.8863759238498D-01
   121  1.2000000000000D+00 -1.9302092343285D-01  9.3354300081817D-01
   122  1.2100000000000D+00 -1.9018594115868D-01  8.7810418165071D-01
   123  1.2200000000000D+00 -1.8647135121207D-01  8.2266657853126D-01
   124  1.2300000000000D+00 -1.8195964047792D-01  7.6756842413078D-01
   125  1.2400000000000D+00 -1.7673436676879D-01  7.1313660434587D-01
   126  1.2500000000000D+00 -1.7087937882405D-01  6.5968263786992D-01
   127  1.2600000000000D+00 -1.6447804539939D-01  6.0749882494849D-01
   128  1.2700000000000D+00 -1.5761250236753D-01  5.5685462087096D-01
   129  1.2800000000000D+00 -1.5036292154261D-01  5.0799324881487D-01
   130  1.2900000000000D+00 -1.4280683469434D-01  4.6112879928143D-01
   131  1.3000000000000D+00 -1.3501844174302D-01  4.1644324499114D-01
   132  1.3100000000000D+00 -1.2706798569441D-01  3.7408396150691D-01
   133  1.3200000000000D+00 -1.1902158336213D-01  3.3416522011859D-01
   134  1.3300000000000D+00 -1.1094117254288D-01  2.9677011318817D-01
   135  1.3400000000000D+00 -1.0288464396331D-01  2.6195355087641D-01
   136  1.3500000000000D+00 -9.4905643206170D-02  2.2974214734323D-01
   137  1.3600000000000D+00 -8.7053474957417D-02  2.0013481923897D-01
   138  1.3700000000000D+00 -7.9373095389451D-02  1.7310409165639D-01
   139  1.3800000000000D+00 -7.1905151520031D-02  1.4859765354364D-01
   140  1.3900000000000D+00 -6.4686081089355D-02  1.2654031798640D-01
   141  1.4000000000000D+00 -5.7748266074162D-02  1.0683632021477D-01
   142  1.4100000000000D+00 -5.1120234958243D-02  8.9371917048016D-02
   143  1.4200000000000D+00 -4.4826907855008D-02  7.4018241611193D-02
   144  1.4300000000000D+00 -3.8889878739934D-02  6.0634368323201D-02
   145  1.4400000000000D+00 -3.3327726723696D-02  4.9070528902597D-02
   146  1.4500000000000D+00 -2.8156350015188D-02  3.9171430684234D-02
   147  1.4600000000000D+00 -2.3389314040625D-02  3.0779615128029D-02
   148  1.4700000000000D+00 -1.9038206588196D-02  2.3738803921039D-02
   149  1.4800000000000D+00 -1.5112991304843D-02  1.7897169225190D-02
   150  1.4900000000000D+00 -1.1622353060245D-02  1.3110481650390D-02
   151  1.5000000000000D+00 -8.5740260600032D-03  9.2450692761725D-03
   152  1.5100000000000D+00 -5.9763008351487D-03  6.1815667616214D-03
   153  1.5200000000000D+00 -3.8333634174323D-03  3.8131918876845D-03
   154  1.5300000000000D+00 -2.1433582159864D-03  2.0469104216277D-03
   155  1.5400000000000D+00 -9.3782121731070D-04  8.3432493028916D-04
   156  1.5500000000000D+00 -2.3894562715631D-04  1.3772905396705D-04
   157  1.5600000000000D+00  4.3047831533901D-05 -1.3036385170921D-04
   158  1.5700000000000D+00  5.9538345215533D-05 -9.9340366038295D-05
   159  1.5800000000000D+00 -4.6856558656651D-06  7.2380516087893D-06
   160  1.5900000000000D+00 -1.6117661410684D-05  2.3818109770607D-05
   161  1.6000000000000D+00  1.4383941830859D-06 -2.3265415830813D-06
   162  1.6100000000000D+00  2.9818980710669D-06 -4.7298508905740D-06
   163  1.6200000000000D+00 -6.7134173878317D-08  1.9976530924906D-07
   164  1.6300000000000D+00 -1.0257594382025D-07  3.0522629467235D-07
   165  1.6400000000000D+00  0.0000000000000D+00  0.0000000000000D+00
   166  1.6500000000000D+00  0.0000000000000D+00  0.0000000000000D+00
   167  1.6600000000000D+00  0.0000000000000D+00  0.0000000000000D+00
   168  1.6700000000000D+00  0.0000000000000D+00  0.0000000000000D+00
   169  1.6800000000000D+00  0.0000000000000D+00  0.0000000000000D+00
   170  1.6900000000000D+00  0.0000000000000D+00  0.0000000000000D+00
   171  1.7000000000000D+00  0.0000000000000D+00  0.0000000000000D+00
   172  1.7100000000000D+00  0.0000000000000D+00  0.0000000000000D+00
   173  1.7200000000000D+00  0.0000000000000D+00  0.0000000000000D+00
   174  1.7300000000000D+00  0.0000000000000D+00  0.0000000000000D+00
   175  1.7400000000000D+00  0.0000000000000D+00  0.0000000000000D+00
   176  1.7500000000000D+00  0.0000000000000D+00  0.0000000000000D+00
   177  1.7600000000000D+00  0.0000000000000D+00  0.0000000000000D+00
   178  1.7700000000000D+00  0.0000000000000D+00  0.0000000000000D+00
   179  1.7800000000000D+00  0.0000000000000D+00  0.0000000000000D+00
   180  1.7900000000000D+00  0.0000000000000D+00  0.0000000000000D+00
   181  1.8000000000000D+00  0.0000000000000D+00  0.0000000000000D+00
   182  1.8100000000000D+00  0.0000000000000D+00  0.0000000000000D+00
   183  1.8200000000000D+00  0.0000000000000D+00  0.0000000000000D+00
   184  1.8300000000000D+00  0.0000000000000D+00  0.0000000000000D+00
   185  1.8400000000000D+00  0.0000000000000D+00  0.0000000000000D+00
   186  1.8500000000000D+00  0.0000000000000D+00  0.0000000000000D+00
   187  1.8600000000000D+00  0.0000000000000D+00  0.0000000000000D+00
   188  1.8700000000000D+00  0.0000000000000D+00  0.0000000000000D+00
   189  1.8800000000000D+00  0.0000000000000D+00  0.0000000000000D+00
   190  1.8900000000000D+00  0.0000000000000D+00  0.0000000000000D+00
   191  1.9000000000000D+00  0.0000000000000D+00  0.0000000000000D+00
   192  1.9100000000000D+00  0.0000000000000D+00  0.0000000000000D+00
   193  1.9200000000000D+00  0.0000000000000D+00  0.0000000000000D+00
   194  1.9300000000000D+00  0.0000000000000D+00  0.0000000000000D+00
   195  1.9400000000000D+00  0.0000000000000D+00  0.0000000000000D+00
   196  1.9500000000000D+00  0.0000000000000D+00  0.0000000000000D+00
   197  1.9600000000000D+00  0.0000000000000D+00  0.0000000000000D+00
   198  1.9700000000000D+00  0.0000000000000D+00  0.0000000000000D+00
   199  1.9800000000000D+00  0.0000000000000D+00  0.0000000000000D+00
   200  1.9900000000000D+00  0.0000000000000D+00  0.0000000000000D+00
   201  2.0000000000000D+00  0.0000000000000D+00  0.0000000000000D+00
   202  2.0100000000000D+00  0.0000000000000D+00  0.0000000000000D+00
   203  2.0200000000000D+00  0.0000000000000D+00  0.0000000000000D+00
   204  2.0300000000000D+00  0.0000000000000D+00  0.0000000000000D+00
   205  2.0400000000000D+00  0.0000000000000D+00  0.0000000000000D+00
   206  2.0500000000000D+00  0.0000000000000D+00  0.0000000000000D+00
   207  2.0600000000000D+00  0.0000000000000D+00  0.0000000000000D+00
   208  2.0700000000000D+00  0.0000000000000D+00  0.0000000000000D+00
   209  2.0800000000000D+00  0.0000000000000D+00  0.0000000000000D+00
   210  2.0900000000000D+00  0.0000000000000D+00  0.0000000000000D+00
   211  2.1000000000000D+00  0.0000000000000D+00  0.0000000000000D+00
   212  2.1100000000000D+00  0.0000000000000D+00  0.0000000000000D+00
   213  2.1200000000000D+00  0.0000000000000D+00  0.0000000000000D+00
   214  2.1300000000000D+00  0.0000000000000D+00  0.0000000000000D+00
   215  2.1400000000000D+00  0.0000000000000D+00  0.0000000000000D+00
   216  2.1500000000000D+00  0.0000000000000D+00  0.0000000000000D+00
   217  2.1600000000000D+00  0.0000000000000D+00  0.0000000000000D+00
   218  2.1700000000000D+00  0.0000000000000D+00  0.0000000000000D+00
   219  2.1800000000000D+00  0.0000000000000D+00  0.0000000000000D+00
   220  2.1900000000000D+00  0.0000000000000D+00  0.0000000000000D+00
   221  2.2000000000000D+00  0.0000000000000D+00  0.0000000000000D+00
   222  2.2100000000000D+00  0.0000000000000D+00  0.0000000000000D+00
   223  2.2200000000000D+00  0.0000000000000D+00  0.0000000000000D+00
   224  2.2300000000000D+00  0.0000000000000D+00  0.0000000000000D+00
   225  2.2400000000000D+00  0.0000000000000D+00  0.0000000000000D+00
   226  2.2500000000000D+00  0.0000000000000D+00  0.0000000000000D+00
   227  2.2600000000000D+00  0.0000000000000D+00  0.0000000000000D+00
   228  2.2700000000000D+00  0.0000000000000D+00  0.0000000000000D+00
   229  2.2800000000000D+00  0.0000000000000D+00  0.0000000000000D+00
   230  2.2900000000000D+00  0.0000000000000D+00  0.0000000000000D+00
   231  2.3000000000000D+00  0.0000000000000D+00  0.0000000000000D+00
   232  2.3100000000000D+00  0.0000000000000D+00  0.0000000000000D+00
   233  2.3200000000000D+00  0.0000000000000D+00  0.0000000000000D+00
   234  2.3300000000000D+00  0.0000000000000D+00  0.0000000000000D+00
   235  2.3400000000000D+00  0.0000000000000D+00  0.0000000000000D+00
   236  2.3500000000000D+00  0.0000000000000D+00  0.0000000000000D+00
   237  2.3600000000000D+00  0.0000000000000D+00  0.0000000000000D+00
   238  2.3700000000000D+00  0.0000000000000D+00  0.0000000000000D+00
   239  2.3800000000000D+00  0.0000000000000D+00  0.0000000000000D+00
   240  2.3900000000000D+00  0.0000000000000D+00  0.0000000000000D+00
   241  2.4000000000000D+00  0.0000000000000D+00  0.0000000000000D+00
   242  2.4100000000000D+00  0.0000000000000D+00  0.0000000000000D+00
   243  2.4200000000000D+00  0.0000000000000D+00  0.0000000000000D+00
   244  2.4300000000000D+00  0.0000000000000D+00  0.0000000000000D+00
   245  2.4400000000000D+00  0.0000000000000D+00  0.0000000000000D+00
   246  2.4500000000000D+00  0.0000000000000D+00  0.0000000000000D+00
   247  2.4600000000000D+00  0.0000000000000D+00  0.0000000000000D+00
   248  2.4700000000000D+00  0.0000000000000D+00  0.0000000000000D+00
   249  2.4800000000000D+00  0.0000000000000D+00  0.0000000000000D+00
   250  2.4900000000000D+00  0.0000000000000D+00  0.0000000000000D+00
   251  2.5000000000000D+00  0.0000000000000D+00  0.0000000000000D+00
   252  2.5100000000000D+00  0.0000000000000D+00  0.0000000000000D+00
   253  2.5200000000000D+00  0.0000000000000D+00  0.0000000000000D+00
   254  2.5300000000000D+00  0.0000000000000D+00  0.0000000000000D+00
   255  2.5400000000000D+00  0.0000000000000D+00  0.0000000000000D+00
   256  2.5500000000000D+00  0.0000000000000D+00  0.0000000000000D+00
   257  2.5600000000000D+00  0.0000000000000D+00  0.0000000000000D+00
   258  2.5700000000000D+00  0.0000000000000D+00  0.0000000000000D+00
   259  2.5800000000000D+00  0.0000000000000D+00  0.0000000000000D+00
   260  2.5900000000000D+00  0.0000000000000D+00  0.0000000000000D+00
   261  2.6000000000000D+00  0.0000000000000D+00  0.0000000000000D+00
   262  2.6100000000000D+00  0.0000000000000D+00  0.0000000000000D+00
   263  2.6200000000000D+00  0.0000000000000D+00  0.0000000000000D+00
   264  2.6300000000000D+00  0.0000000000000D+00  0.0000000000000D+00
   265  2.6400000000000D+00  0.0000000000000D+00  0.0000000000000D+00
   266  2.6500000000000D+00  0.0000000000000D+00  0.0000000000000D+00
   267  2.6600000000000D+00  0.0000000000000D+00  0.0000000000000D+00
   268  2.6700000000000D+00  0.0000000000000D+00  0.0000000000000D+00
   269  2.6800000000000D+00  0.0000000000000D+00  0.0000000000000D+00
   270  2.6900000000000D+00  0.0000000000000D+00  0.0000000000000D+00
   271  2.7000000000000D+00  0.0000000000000D+00  0.0000000000000D+00
   272  2.7100000000000D+00  0.0000000000000D+00  0.0000000000000D+00
   273  2.7200000000000D+00  0.0000000000000D+00  0.0000000000000D+00
   274  2.7300000000000D+00  0.0000000000000D+00  0.0000000000000D+00
   275  2.7400000000000D+00  0.0000000000000D+00  0.0000000000000D+00
   276  2.7500000000000D+00  0.0000000000000D+00  0.0000000000000D+00
   277  2.7600000000000D+00  0.0000000000000D+00  0.0000000000000D+00
   278  2.7700000000000D+00  0.0000000000000D+00  0.0000000000000D+00
   279  2.7800000000000D+00  0.0000000000000D+00  0.0000000000000D+00
   280  2.7900000000000D+00  0.0000000000000D+00  0.0000000000000D+00
   281  2.8000000000000D+00  0.0000000000000D+00  0.0000000000000D+00
   282  2.8100000000000D+00  0.0000000000000D+00  0.0000000000000D+00
   283  2.8200000000000D+00  0.0000000000000D+00  0.0000000000000D+00
   284  2.8300000000000D+00  0.0000000000000D+00  0.0000000000000D+00
   285  2.8400000000000D+00  0.0000000000000D+00  0.0000000000000D+00
   286  2.8500000000000D+00  0.0000000000000D+00  0.0000000000000D+00
   287  2.8600000000000D+00  0.0000000000000D+00  0.0000000000000D+00
   288  2.8700000000000D+00  0.0000000000000D+00  0.0000000000000D+00
   289  2.8800000000000D+00  0.0000000000000D+00  0.0000000000000D+00
   290  2.8900000000000D+00  0.0000000000000D+00  0.0000000000000D+00
   291  2.9000000000000D+00  0.0000000000000D+00  0.0000000000000D+00
   292  2.9100000000000D+00  0.0000000000000D+00  0.0000000000000D+00
   293  2.9200000000000D+00  0.0000000000000D+00  0.0000000000000D+00
   294  2.9300000000000D+00  0.0000000000000D+00  0.0000000000000D+00
   295  2.9400000000000D+00  0.0000000000000D+00  0.0000000000000D+00
   296  2.9500000000000D+00  0.0000000000000D+00  0.0000000000000D+00
   297  2.9600000000000D+00  0.0000000000000D+00  0.0000000000000D+00
   298  2.9700000000000D+00  0.0000000000000D+00  0.0000000000000D+00
   299  2.9800000000000D+00  0.0000000000000D+00  0.0000000000000D+00
   300  2.9900000000000D+00  0.0000000000000D+00  0.0000000000000D+00
   301  3.0000000000000D+00  0.0000000000000D+00  0.0000000000000D+00
   302  3.0100000000000D+00  0.0000000000000D+00  0.0000000000000D+00
   303  3.0200000000000D+00  0.0000000000000D+00  0.0000000000000D+00
   304  3.0300000000000D+00  0.0000000000000D+00  0.0000000000000D+00
   305  3.0400000000000D+00  0.0000000000000D+00  0.0000000000000D+00
   306  3.0500000000000D+00  0.0000000000000D+00  0.0000000000000D+00
   307  3.0600000000000D+00  0.0000000000000D+00  0.0000000000000D+00
   308  3.0700000000000D+00  0.0000000000000D+00  0.0000000000000D+00
   309  3.0800000000000D+00  0.0000000000000D+00  0.0000000000000D+00
   310  3.0900000000000D+00  0.0000000000000D+00  0.0000000000000D+00
   311  3.1000000000000D+00  0.0000000000000D+00  0.0000000000000D+00
   312  3.1100000000000D+00  0.0000000000000D+00  0.0000000000000D+00
   313  3.1200000000000D+00  0.0000000000000D+00  0.0000000000000D+00
   314  3.1300000000000D+00  0.0000000000000D+00  0.0000000000000D+00
   315  3.1400000000000D+00  0.0000000000000D+00  0.0000000000000D+00
   316  3.1500000000000D+00  0.0000000000000D+00  0.0000000000000D+00
   317  3.1600000000000D+00  0.0000000000000D+00  0.0000000000000D+00
   318  3.1700000000000D+00  0.0000000000000D+00  0.0000000000000D+00
   319  3.1800000000000D+00  0.0000000000000D+00  0.0000000000000D+00
   320  3.1900000000000D+00  0.0000000000000D+00  0.0000000000000D+00
   321  3.2000000000000D+00  0.0000000000000D+00  0.0000000000000D+00
   322  3.2100000000000D+00  0.0000000000000D+00  0.0000000000000D+00
   323  3.2200000000000D+00  0.0000000000000D+00  0.0000000000000D+00
   324  3.2300000000000D+00  0.0000000000000D+00  0.0000000000000D+00
   325  3.2400000000000D+00  0.0000000000000D+00  0.0000000000000D+00
   326  3.2500000000000D+00  0.0000000000000D+00  0.0000000000000D+00
   327  3.2600000000000D+00  0.0000000000000D+00  0.0000000000000D+00
   328  3.2700000000000D+00  0.0000000000000D+00  0.0000000000000D+00
   329  3.2800000000000D+00  0.0000000000000D+00  0.0000000000000D+00
   330  3.2900000000000D+00  0.0000000000000D+00  0.0000000000000D+00
   331  3.3000000000000D+00  0.0000000000000D+00  0.0000000000000D+00
   332  3.3100000000000D+00  0.0000000000000D+00  0.0000000000000D+00
   333  3.3200000000000D+00  0.0000000000000D+00  0.0000000000000D+00
   334  3.3300000000000D+00  0.0000000000000D+00  0.0000000000000D+00
   335  3.3400000000000D+00  0.0000000000000D+00  0.0000000000000D+00
   336  3.3500000000000D+00  0.0000000000000D+00  0.0000000000000D+00
   337  3.3600000000000D+00  0.0000000000000D+00  0.0000000000000D+00
   338  3.3700000000000D+00  0.0000000000000D+00  0.0000000000000D+00
   339  3.3800000000000D+00  0.0000000000000D+00  0.0000000000000D+00
   340  3.3900000000000D+00  0.0000000000000D+00  0.0000000000000D+00
   341  3.4000000000000D+00  0.0000000000000D+00  0.0000000000000D+00
   342  3.4100000000000D+00  0.0000000000000D+00  0.0000000000000D+00
   343  3.4200000000000D+00  0.0000000000000D+00  0.0000000000000D+00
   344  3.4300000000000D+00  0.0000000000000D+00  0.0000000000000D+00
   345  3.4400000000000D+00  0.0000000000000D+00  0.0000000000000D+00
   346  3.4500000000000D+00  0.0000000000000D+00  0.0000000000000D+00
   347  3.4600000000000D+00  0.0000000000000D+00  0.0000000000000D+00
   348  3.4700000000000D+00  0.0000000000000D+00  0.0000000000000D+00
   349  3.4800000000000D+00  0.0000000000000D+00  0.0000000000000D+00
   350  3.4900000000000D+00  0.0000000000000D+00  0.0000000000000D+00
   351  3.5000000000000D+00  0.0000000000000D+00  0.0000000000000D+00
   352  3.5100000000000D+00  0.0000000000000D+00  0.0000000000000D+00
   353  3.5200000000000D+00  0.0000000000000D+00  0.0000000000000D+00
   354  3.5300000000000D+00  0.0000000000000D+00  0.0000000000000D+00
   355  3.5400000000000D+00  0.0000000000000D+00  0.0000000000000D+00
   356  3.5500000000000D+00  0.0000000000000D+00  0.0000000000000D+00
   357  3.5600000000000D+00  0.0000000000000D+00  0.0000000000000D+00
   358  3.5700000000000D+00  0.0000000000000D+00  0.0000000000000D+00
   359  3.5800000000000D+00  0.0000000000000D+00  0.0000000000000D+00
   360  3.5900000000000D+00  0.0000000000000D+00  0.0000000000000D+00
   361  3.6000000000000D+00  0.0000000000000D+00  0.0000000000000D+00
   362  3.6100000000000D+00  0.0000000000000D+00  0.0000000000000D+00
   363  3.6200000000000D+00  0.0000000000000D+00  0.0000000000000D+00
   364  3.6300000000000D+00  0.0000000000000D+00  0.0000000000000D+00
   365  3.6400000000000D+00  0.0000000000000D+00  0.0000000000000D+00
   366  3.6500000000000D+00  0.0000000000000D+00  0.0000000000000D+00
   367  3.6600000000000D+00  0.0000000000000D+00  0.0000000000000D+00
   368  3.6700000000000D+00  0.0000000000000D+00  0.0000000000000D+00
   369  3.6800000000000D+00  0.0000000000000D+00  0.0000000000000D+00
   370  3.6900000000000D+00  0.0000000000000D+00  0.0000000000000D+00
   371  3.7000000000000D+00  0.0000000000000D+00  0.0000000000000D+00
   372  3.7100000000000D+00  0.0000000000000D+00  0.0000000000000D+00
   373  3.7200000000000D+00  0.0000000000000D+00  0.0000000000000D+00
   374  3.7300000000000D+00  0.0000000000000D+00  0.0000000000000D+00
   375  3.7400000000000D+00  0.0000000000000D+00  0.0000000000000D+00
   376  3.7500000000000D+00  0.0000000000000D+00  0.0000000000000D+00
   377  3.7600000000000D+00  0.0000000000000D+00  0.0000000000000D+00
   378  3.7700000000000D+00  0.0000000000000D+00  0.0000000000000D+00
   379  3.7800000000000D+00  0.0000000000000D+00  0.0000000000000D+00
   380  3.7900000000000D+00  0.0000000000000D+00  0.0000000000000D+00
   381  3.8000000000000D+00  0.0000000000000D+00  0.0000000000000D+00
   382  3.8100000000000D+00  0.0000000000000D+00  0.0000000000000D+00
   383  3.8200000000000D+00  0.0000000000000D+00  0.0000000000000D+00
   384  3.8300000000000D+00  0.0000000000000D+00  0.0000000000000D+00
   385  3.8400000000000D+00  0.0000000000000D+00  0.0000000000000D+00
   386  3.8500000000000D+00  0.0000000000000D+00  0.0000000000000D+00
   387  3.8600000000000D+00  0.0000000000000D+00  0.0000000000000D+00
   388  3.8700000000000D+00  0.0000000000000D+00  0.0000000000000D+00
   389  3.8800000000000D+00  0.0000000000000D+00  0.0000000000000D+00
   390  3.8900000000000D+00  0.0000000000000D+00  0.0000000000000D+00
   391  3.9000000000000D+00  0.0000000000000D+00  0.0000000000000D+00
   392  3.9100000000000D+00  0.0000000000000D+00  0.0000000000000D+00
   393  3.9200000000000D+00  0.0000000000000D+00  0.0000000000000D+00
   394  3.9300000000000D+00  0.0000000000000D+00  0.0000000000000D+00
   395  3.9400000000000D+00  0.0000000000000D+00  0.0000000000000D+00
   396  3.9500000000000D+00  0.0000000000000D+00  0.0000000000000D+00
   397  3.9600000000000D+00  0.0000000000000D+00  0.0000000000000D+00
   398  3.9700000000000D+00  0.0000000000000D+00  0.0000000000000D+00
   399  3.9800000000000D+00  0.0000000000000D+00  0.0000000000000D+00
   400  3.9900000000000D+00  0.0000000000000D+00  0.0000000000000D+00
   401  4.0000000000000D+00  0.0000000000000D+00  0.0000000000000D+00
   402  4.0100000000000D+00  0.0000000000000D+00  0.0000000000000D+00
   403  4.0200000000000D+00  0.0000000000000D+00  0.0000000000000D+00
   404  4.0300000000000D+00  0.0000000000000D+00  0.0000000000000D+00
   405  4.0400000000000D+00  0.0000000000000D+00  0.0000000000000D+00
   406  4.0500000000000D+00  0.0000000000000D+00  0.0000000000000D+00
   407  4.0600000000000D+00  0.0000000000000D+00  0.0000000000000D+00
   408  4.0700000000000D+00  0.0000000000000D+00  0.0000000000000D+00
   409  4.0800000000000D+00  0.0000000000000D+00  0.0000000000000D+00
   410  4.0900000000000D+00  0.0000000000000D+00  0.0000000000000D+00
   411  4.1000000000000D+00  0.0000000000000D+00  0.0000000000000D+00
   412  4.1100000000000D+00  0.0000000000000D+00  0.0000000000000D+00
   413  4.1200000000000D+00  0.0000000000000D+00  0.0000000000000D+00
   414  4.1300000000000D+00  0.0000000000000D+00  0.0000000000000D+00
   415  4.1400000000000D+00  0.0000000000000D+00  0.0000000000000D+00
   416  4.1500000000000D+00  0.0000000000000D+00  0.0000000000000D+00
   417  4.1600000000000D+00  0.0000000000000D+00  0.0000000000000D+00
   418  4.1700000000000D+00  0.0000000000000D+00  0.0000000000000D+00
   419  4.1800000000000D+00  0.0000000000000D+00  0.0000000000000D+00
   420  4.1900000000000D+00  0.0000000000000D+00  0.0000000000000D+00
   421  4.2000000000000D+00  0.0000000000000D+00  0.0000000000000D+00
   422  4.2100000000000D+00  0.0000000000000D+00  0.0000000000000D+00