Dy    ONCVPSP-3.3.0  r_core=   1.80633   1.51039   1.66163   1.70175
     66.0000     20.0000      220408    zatom,zion,pspd
     8       2   3     4   600     0    pspcod,pspxc,lmax,lloc,mmax,r2well
  5.99000000  0.00000000  0.00000000    rchrg fchrg qchrg
     2     2     2     2     0    nproj
     1     1           extension_switch
   0                         8.7861048673373D+00  6.2527322370036D-01
     1  0.0000000000000D+00 -5.6715743212976D-11  3.6849925888482D-10
     2  1.0000000000000D-02  4.8993383718020D-02 -2.3931269143769D-02
     3  2.0000000000000D-02  9.7921230340541D-02 -4.7715955371208D-02
     4  3.0000000000000D-02  1.4671818928256D-01 -7.1208599257104D-02
     5  4.0000000000000D-02  1.9531928154610D-01 -9.4265978058140D-02
     6  5.0000000000000D-02  2.4366008194340D-01 -1.1674819839714D-01
     7  6.0000000000000D-02  2.9167689707614D-01 -1.3851975842201D-01
     8  7.0000000000000D-02  3.3930693772325D-01 -1.5945056969997D-01
     9  8.0000000000000D-02  3.8648848434663D-01 -1.7941692947607D-01
    10  9.0000000000000D-02  4.3316104449377D-01 -1.9830243438010D-01
    11  1.0000000000000D-01  4.7926550095905D-01 -2.1599882720315D-01
    12  1.1000000000000D-01  5.2474424965946D-01 -2.3240676898037D-01
    13  1.2000000000000D-01  5.6954132628584D-01 -2.4743652930397D-01
    14  1.3000000000000D-01  6.1360252090533D-01 -2.6100858854517D-01
    15  1.4000000000000D-01  6.5687547981489D-01 -2.7305414647822D-01
    16  1.5000000000000D-01  6.9930979407679D-01 -2.8351553266759D-01
    17  1.6000000000000D-01  7.4085707430478D-01 -2.9234651489253D-01
    18  1.7000000000000D-01  7.8147101141231D-01 -2.9951250283450D-01
    19  1.8000000000000D-01  8.2110742318035D-01 -3.0499064523323D-01
    20  1.9000000000000D-01  8.5972428665094D-01 -3.0876981971788D-01
    21  2.0000000000000D-01  8.9728175650132D-01 -3.1085051553258D-01
    22  2.1000000000000D-01  9.3374216970217D-01 -3.1124461039069D-01
    23  2.2000000000000D-01  9.6907003690887D-01 -3.0997504370048D-01
    24  2.3000000000000D-01  1.0032320211770D+00 -3.0707538939770D-01
    25  2.4000000000000D-01  1.0361969047293D+00 -3.0258933258779D-01
    26  2.5000000000000D-01  1.0679355446325D+00 -2.9657005513401D-01
    27  2.6000000000000D-01  1.0984208183605D+00 -2.8907953621777D-01
    28  2.7000000000000D-01  1.1276275603371D+00 -2.8018777473635D-01
    29  2.8000000000000D-01  1.1555324906475D+00 -2.6997194118157D-01
    30  2.9000000000000D-01  1.1821141371983D+00 -2.5851546735443D-01
    31  3.0000000000000D-01  1.2073527526824D+00 -2.4590708290659D-01
    32  3.1000000000000D-01  1.2312302277637D+00 -2.3223980825417D-01
    33  3.2000000000000D-01  1.2537300019433D+00 -2.1760991387593D-01
    34  3.3000000000000D-01  1.2748369735993D+00 -2.0211585638179D-01
    35  3.4000000000000D-01  1.2945374107049D+00 -1.8585720201385D-01
    36  3.5000000000000D-01  1.3128188637260D+00 -1.6893354841653D-01
    37  3.6000000000000D-01  1.3296700821788D+00 -1.5144345558377D-01
    38  3.7000000000000D-01  1.3450809362884D+00 -1.3348339685555D-01
    39  3.8000000000000D-01  1.3590423451358D+00 -1.1514674069398D-01
    40  3.9000000000000D-01  1.3715462126065D+00 -9.6522773720357D-02
    41  4.0000000000000D-01  1.3825853723632D+00 -7.7695775139696D-02
    42  4.1000000000000D-01  1.3921535429634D+00 -5.8744152220996D-02
    43  4.2000000000000D-01  1.4002452941178D+00 -3.9739645942861D-02
    44  4.3000000000000D-01  1.4068560249525D+00 -2.0746615259134D-02
    45  4.4000000000000D-01  1.4119819549902D+00 -1.8214076931980D-03
    46  4.5000000000000D-01  1.4156201284029D+00  1.6988176861142D-02
    47  4.6000000000000D-01  1.4177684319219D+00  3.5643323162170D-02
    48  4.7000000000000D-01  1.4184256266082D+00  5.4114533474862D-02
    49  4.8000000000000D-01  1.4175913935030D+00  7.2381852304048D-02
    50  4.9000000000000D-01  1.4152663929849D+00  9.0434980142640D-02
    51  5.0000000000000D-01  1.4114523374677D+00  1.0827327450105D-01
    52  5.1000000000000D-01  1.4061520768769D+00  1.2590563764397D-01
    53  5.2000000000000D-01  1.3993696961489D+00  1.4335029163753D-01
    54  5.3000000000000D-01  1.3911106238075D+00  1.6063444249490D-01
    55  5.4000000000000D-01  1.3813817504868D+00  1.7779383638349D-01
    56  5.5000000000000D-01  1.3701915560937D+00  1.9487221201798D-01
    57  5.6000000000000D-01  1.3575502441362D+00  2.1192065448944D-01
    58  5.7000000000000D-01  1.3434698815908D+00  2.2899685686483D-01
    59  5.8000000000000D-01  1.3279645425430D+00  2.4616429692010D-01
    60  5.9000000000000D-01  1.3110504537114D+00  2.6349133732890D-01
    61  6.0000000000000D-01  1.2927461398639D+00  2.8105025851145D-01
    62  6.1000000000000D-01  1.2730725670493D+00  2.9891623413871D-01
    63  6.2000000000000D-01  1.2520532815080D+00  3.1716625997697D-01
    64  6.3000000000000D-01  1.2297145420866D+00  3.3587804734306D-01
    65  6.4000000000000D-01  1.2060854439680D+00  3.5512889290071D-01
    66  6.5000000000000D-01  1.1811980315408D+00  3.7499453687364D-01
    67  6.6000000000000D-01  1.1550873982724D+00  3.9554802195703D-01
    68  6.7000000000000D-01  1.1277917715119D+00  4.1685856528861D-01
    69  6.8000000000000D-01  1.0993525802454D+00  4.3899045577643D-01
    70  6.9000000000000D-01  1.0698145039422D+00  4.6200198888115D-01
    71  7.0000000000000D-01  1.0392255007756D+00  4.8594445061143D-01
    72  7.1000000000000D-01  1.0076368136741D+00  5.1086116201599D-01
    73  7.2000000000000D-01  9.7510295285123D-01  5.3678659484425D-01
    74  7.3000000000000D-01  9.4168165367998D-01  5.6374556831211D-01
    75  7.4000000000000D-01  9.0743380901484D-01  5.9175253604866D-01
    76  7.5000000000000D-01  8.7242337532170D-01  6.2081097132676D-01
    77  7.6000000000000D-01  8.3671725224658D-01  6.5091285760871D-01
    78  7.7000000000000D-01  8.0038513554146D-01  6.8203829026520D-01
    79  7.8000000000000D-01  7.6349934356025D-01  7.1415519408526D-01
    80  7.9000000000000D-01  7.2613461784171D-01  7.4721915988311D-01
    81  8.0000000000000D-01  6.8836789860222D-01  7.8117340214967D-01
    82  8.1000000000000D-01  6.5027807626845D-01  8.1594883830605D-01
    83  8.2000000000000D-01  6.1194572048214D-01  8.5146428871119D-01
    84  8.3000000000000D-01  5.7345278830426D-01  8.8762679517317D-01
    85  8.4000000000000D-01  5.3488231362913D-01  9.2433205433426D-01
    86  8.5000000000000D-01  4.9631808008594D-01  9.6146496095927D-01
    87  8.6000000000000D-01  4.5784427995308D-01  9.9890025487780D-01
    88  8.7000000000000D-01  4.1954516183448D-01  1.0365032641274D+00
    89  8.8000000000000D-01  3.8150467004394D-01  1.0741307357395D+00
    90  8.9000000000000D-01  3.4380607880891D-01  1.1116317446174D+00
    91  9.0000000000000D-01  3.0653162453713D-01  1.1488486700912D+00
    92  9.1000000000000D-01  2.6976213948348D-01  1.1856182290187D+00
    93  9.2000000000000D-01  2.3357669020910D-01  1.2217725537398D+00
    94  9.3000000000000D-01  1.9805222423697D-01  1.2571403028041D+00
    95  9.4000000000000D-01  1.6326322827651D-01  1.2915477921806D+00
    96  9.5000000000000D-01  1.2928140131281D-01  1.3248201346398D+00
    97  9.6000000000000D-01  9.6175345732454D-02  1.3567823751681D+00
    98  9.7000000000000D-01  6.4010279489963D-02  1.3872606106396D+00
    99  9.8000000000000D-01  3.2847772096946D-02  1.4160830825533D+00
   100  9.9000000000000D-01  2.7455069679787D-03  1.4430812323593D+00
   101  1.0000000000000D+00 -2.6242927661579D-02  1.4680907098853D+00
   102  1.0100000000000D+00 -5.4068217367197D-02  1.4909523264714D+00
   103  1.0200000000000D+00 -8.0685468224412D-02  1.5115129457134D+00
   104  1.0300000000000D+00 -1.0605432048069D-01  1.5296263061488D+00
   105  1.0400000000000D+00 -1.3013902859268D-01  1.5451537718209D+00
   106  1.0500000000000D+00 -1.5290850747289D-01  1.5579650082877D+00
   107  1.0600000000000D+00 -1.7433634528770D-01  1.5679385834237D+00
   108  1.0700000000000D+00 -1.9440078367255D-01  1.5749624942439D+00
   109  1.0800000000000D+00 -2.1308466672580D-01  1.5789346227648D+00
   110  1.0900000000000D+00 -2.3037536068367D-01  1.5797631258634D+00
   111  1.1000000000000D+00 -2.4626464665378D-01  1.5773667657906D+00
   112  1.1100000000000D+00 -2.6074858929788D-01  1.5716751898213D+00
   113  1.1200000000000D+00 -2.7382738483469D-01  1.5626291691971D+00
   114  1.1300000000000D+00 -2.8550519215028D-01  1.5501808089319D+00
   115  1.1400000000000D+00 -2.9578995119939D-01  1.5342937413375D+00
   116  1.1500000000000D+00 -3.0469319320221D-01  1.5149433171526D+00
   117  1.1600000000000D+00 -3.1222984747618D-01  1.4921168090791D+00
   118  1.1700000000000D+00 -3.1841804989406D-01  1.4658136427816D+00
   119  1.1800000000000D+00 -3.2327895808445D-01  1.4360456704873D+00
   120  1.1900000000000D+00 -3.2683657857588D-01  1.4028375022199D+00
   121  1.2000000000000D+00 -3.2911761099468D-01  1.3662269087231D+00
   122  1.2100000000000D+00 -3.3015131412900D-01  1.3262653082569D+00
   123  1.2200000000000D+00 -3.2996939864654D-01  1.2830183490730D+00
   124  1.2300000000000D+00 -3.2860595057992D-01  1.2365665954821D+00
   125  1.2400000000000D+00 -3.2609738905581D-01  1.1870063221562D+00
   126  1.2500000000000D+00 -3.2248246136127D-01  1.1344504192103D+00
   127  1.2600000000000D+00 -3.1780227737681D-01  1.0790294050757D+00
   128  1.2700000000000D+00 -3.1210038394969D-01  1.0208925369790D+00
   129  1.2800000000000D+00 -3.0542287927128D-01  9.6020900628325D-01
   130  1.2900000000000D+00 -2.9781856572563D-01  8.9716919799429D-01
   131  1.3000000000000D+00 -2.8933913698106D-01  8.3198598070667D-01
   132  1.3100000000000D+00 -2.8003939505101D-01  7.6489599302265D-01
   133  1.3200000000000D+00 -2.6997749016818D-01  6.9616087847585D-01
   134  1.3300000000000D+00 -2.5921517221510D-01  6.2606840142865D-01
   135  1.3400000000000D+00 -2.4781804415976D-01  5.5493338451220D-01
   136  1.3500000000000D+00 -2.3585580130848D-01  4.8309837642698D-01
   137  1.3600000000000D+00 -2.2340243656903D-01  4.1093394177212D-01
   138  1.3700000000000D+00 -2.1053639536756D-01  3.3883848091811D-01
   139  1.3800000000000D+00 -1.9734064983276D-01  2.6723742119997D-01
   140  1.3900000000000D+00 -1.8390266598300D-01  1.9658164032064D-01
   141  1.4000000000000D+00 -1.7031423337146D-01  1.2734496250924D-01
   142  1.4100000000000D+00 -1.5667111114514D-01  6.0020494208656D-02
   143  1.4200000000000D+00 -1.4307245947211D-01 -4.8843625222372D-03
   144  1.4300000000000D+00 -1.2961999797530D-01 -6.6854510728292D-02
   145  1.4400000000000D+00 -1.1641684080473D-01 -1.2537562732511D-01
   146  1.4500000000000D+00 -1.0356595517959D-01 -1.7994476688886D-01
   147  1.4600000000000D+00 -9.1168144527652D-02 -2.3008360968686D-01
   148  1.4700000000000D+00 -7.9319579799251D-02 -2.7535413395404D-01
   149  1.4800000000000D+00 -6.8108471593028D-02 -3.1537913939193D-01
   150  1.4900000000000D+00 -5.7611975583832D-02 -3.4986069543350D-01
   151  1.5000000000000D+00 -4.7891251377800D-02 -3.7860910021319D-01
   152  1.5100000000000D+00 -3.8982565764319D-02 -4.0159711138270D-01
   153  1.5200000000000D+00 -3.0899114997319D-02 -4.1894256211577D-01
   154  1.5300000000000D+00 -2.3635193202095D-02 -4.3087473171551D-01
   155  1.5400000000000D+00 -1.7172808117080D-02 -4.3768978405804D-01
   156  1.5500000000000D+00 -1.1487388467752D-02 -4.3971165196298D-01
   157  1.5600000000000D+00 -6.5554998351955D-03 -4.3724522084399D-01
   158  1.5700000000000D+00 -2.3589210266004D-03 -4.3055175883907D-01
   159  1.5800000000000D+00  1.1372783379232D-03 -4.1998656746035D-01
   160  1.5900000000000D+00  3.9873178908806D-03 -4.0601566780670D-01
   161  1.6000000000000D+00  6.2413090741818D-03 -3.8906831741347D-01
   162  1.6100000000000D+00  7.9442212630868D-03 -3.6953114009503D-01
   163  1.6200000000000D+00  9.1453116971622D-03 -3.4780885061517D-01
   164  1.6300000000000D+00  9.8966372306977D-03 -3.2431549026528D-01
   165  1.6400000000000D+00  1.0250870812885D-02 -2.9946112618587D-01
   166  1.6500000000000D+00  1.0261171581802D-02 -2.7365174395638D-01
   167  1.6600000000000D+00  9.9805745038715D-03 -2.4728608111788D-01
   168  1.6700000000000D+00  9.4613751806694D-03 -2.2075240944746D-01
   169  1.6800000000000D+00  8.7545408990729D-03 -1.9442548092414D-01
   170  1.6900000000000D+00  7.9091346472306D-03 -1.6866353959390D-01
   171  1.7000000000000D+00  6.9717645889364D-03 -1.4380547496448D-01
   172  1.7100000000000D+00  5.9860639309023D-03 -1.2016813823725D-01
   173  1.7200000000000D+00  4.9922019485445D-03 -9.8043825175533D-02
   174  1.7300000000000D+00  4.0264344774576D-03 -7.7697967417892D-02
   175  1.7400000000000D+00  3.1206930363243D-03 -5.9367027949986D-02
   176  1.7500000000000D+00  2.3028681613752D-03 -4.3268384222501D-02
   177  1.7600000000000D+00  1.5937217289014D-03 -2.9548470576612D-02
   178  1.7700000000000D+00  1.0066588572819D-03 -1.8290848003156D-02
   179  1.7800000000000D+00  5.6188603719876D-04 -9.7407694684070D-03
   180  1.7900000000000D+00  2.7743099382372D-04 -4.1425607246743D-03
   181  1.8000000000000D+00  1.2992126974699D-04 -1.1914493537443D-03
   182  1.8100000000000D+00  5.8300768636698D-05 -5.2069641147705D-05
   183  1.8200000000000D+00  1.7386698307283D-05  1.2269551548650D-04
   184  1.8300000000000D+00 -1.6932209289597D-06 -2.1041891341420D-05
   185  1.8400000000000D+00 -3.3419507473892D-06 -6.1593514153635D-05
   186  1.8500000000000D+00  1.0969315160617D-08  8.7759941682169D-08
   187  1.8600000000000D+00  1.0368680984856D-06  9.9951235321244D-06
   188  1.8700000000000D+00  2.6501720051816D-07  2.9283811683616D-06
   189  1.8800000000000D+00 -2.1340531188483D-07  8.5280038523560D-07
   190  1.8900000000000D+00 -1.3085355501609D-07  5.2291089261821D-07
   191  1.9000000000000D+00  0.0000000000000D+00  0.0000000000000D+00
   192  1.9100000000000D+00  0.0000000000000D+00  0.0000000000000D+00
   193  1.9200000000000D+00  0.0000000000000D+00  0.0000000000000D+00
   194  1.9300000000000D+00  0.0000000000000D+00  0.0000000000000D+00
   195  1.9400000000000D+00  0.0000000000000D+00  0.0000000000000D+00
   196  1.9500000000000D+00  0.0000000000000D+00  0.0000000000000D+00
   197  1.9600000000000D+00  0.0000000000000D+00  0.0000000000000D+00
   198  1.9700000000000D+00  0.0000000000000D+00  0.0000000000000D+00
   199  1.9800000000000D+00  0.0000000000000D+00  0.0000000000000D+00
   200  1.9900000000000D+00  0.0000000000000D+00  0.0000000000000D+00
   201  2.0000000000000D+00  0.0000000000000D+00  0.0000000000000D+00
   202  2.0100000000000D+00  0.0000000000000D+00  0.0000000000000D+00
   203  2.0200000000000D+00  0.0000000000000D+00  0.0000000000000D+00
   204  2.0300000000000D+00  0.0000000000000D+00  0.0000000000000D+00
   205  2.0400000000000D+00  0.0000000000000D+00  0.0000000000000D+00
   206  2.0500000000000D+00  0.0000000000000D+00  0.0000000000000D+00
   207  2.0600000000000D+00  0.0000000000000D+00  0.0000000000000D+00
   208  2.0700000000000D+00  0.0000000000000D+00  0.0000000000000D+00
   209  2.0800000000000D+00  0.0000000000000D+00  0.0000000000000D+00
   210  2.0900000000000D+00  0.0000000000000D+00  0.0000000000000D+00
   211  2.1000000000000D+00  0.0000000000000D+00  0.0000000000000D+00
   212  2.1100000000000D+00  0.0000000000000D+00  0.0000000000000D+00
   213  2.1200000000000D+00  0.0000000000000D+00  0.0000000000000D+00
   214  2.1300000000000D+00  0.0000000000000D+00  0.0000000000000D+00
   215  2.1400000000000D+00  0.0000000000000D+00  0.0000000000000D+00
   216  2.1500000000000D+00  0.0000000000000D+00  0.0000000000000D+00
   217  2.1600000000000D+00  0.0000000000000D+00  0.0000000000000D+00
   218  2.1700000000000D+00  0.0000000000000D+00  0.0000000000000D+00
   219  2.1800000000000D+00  0.0000000000000D+00  0.0000000000000D+00
   220  2.1900000000000D+00  0.0000000000000D+00  0.0000000000000D+00
   221  2.2000000000000D+00  0.0000000000000D+00  0.0000000000000D+00
   222  2.2100000000000D+00  0.0000000000000D+00  0.0000000000000D+00
   223  2.2200000000000D+00  0.0000000000000D+00  0.0000000000000D+00
   224  2.2300000000000D+00  0.0000000000000D+00  0.0000000000000D+00
   225  2.2400000000000D+00  0.0000000000000D+00  0.0000000000000D+00
   226  2.2500000000000D+00  0.0000000000000D+00  0.0000000000000D+00
   227  2.2600000000000D+00  0.0000000000000D+00  0.0000000000000D+00
   228  2.2700000000000D+00  0.0000000000000D+00  0.0000000000000D+00
   229  2.2800000000000D+00  0.0000000000000D+00  0.0000000000000D+00
   230  2.2900000000000D+00  0.0000000000000D+00  0.0000000000000D+00
   231  2.3000000000000D+00  0.0000000000000D+00  0.0000000000000D+00
   232  2.3100000000000D+00  0.0000000000000D+00  0.0000000000000D+00
   233  2.3200000000000D+00  0.0000000000000D+00  0.0000000000000D+00
   234  2.3300000000000D+00  0.0000000000000D+00  0.0000000000000D+00
   235  2.3400000000000D+00  0.0000000000000D+00  0.0000000000000D+00
   236  2.3500000000000D+00  0.0000000000000D+00  0.0000000000000D+00
   237  2.3600000000000D+00  0.0000000000000D+00  0.0000000000000D+00
   238  2.3700000000000D+00  0.0000000000000D+00  0.0000000000000D+00
   239  2.3800000000000D+00  0.0000000000000D+00  0.0000000000000D+00
   240  2.3900000000000D+00  0.0000000000000D+00  0.0000000000000D+00
   241  2.4000000000000D+00  0.0000000000000D+00  0.0000000000000D+00
   242  2.4100000000000D+00  0.0000000000000D+00  0.0000000000000D+00
   243  2.4200000000000D+00  0.0000000000000D+00  0.0000000000000D+00
   244  2.4300000000000D+00  0.0000000000000D+00  0.0000000000000D+00
   245  2.4400000000000D+00  0.0000000000000D+00  0.0000000000000D+00
   246  2.4500000000000D+00  0.0000000000000D+00  0.0000000000000D+00
   247  2.4600000000000D+00  0.0000000000000D+00  0.0000000000000D+00
   248  2.4700000000000D+00  0.0000000000000D+00  0.0000000000000D+00
   249  2.4800000000000D+00  0.0000000000000D+00  0.0000000000000D+00
   250  2.4900000000000D+00  0.0000000000000D+00  0.0000000000000D+00
   251  2.5000000000000D+00  0.0000000000000D+00  0.0000000000000D+00
   252  2.5100000000000D+00  0.0000000000000D+00  0.0000000000000D+00
   253  2.5200000000000D+00  0.0000000000000D+00  0.0000000000000D+00
   254  2.5300000000000D+00  0.0000000000000D+00  0.0000000000000D+00
   255  2.5400000000000D+00  0.0000000000000D+00  0.0000000000000D+00
   256  2.5500000000000D+00  0.0000000000000D+00  0.0000000000000D+00
   257  2.5600000000000D+00  0.0000000000000D+00  0.0000000000000D+00
   258  2.5700000000000D+00  0.0000000000000D+00  0.0000000000000D+00
   259  2.5800000000000D+00  0.0000000000000D+00  0.0000000000000D+00
   260  2.5900000000000D+00  0.0000000000000D+00  0.0000000000000D+00
   261  2.6000000000000D+00  0.0000000000000D+00  0.0000000000000D+00
   262  2.6100000000000D+00  0.0000000000000D+00  0.0000000000000D+00
   263  2.6200000000000D+00  0.0000000000000D+00  0.0000000000000D+00
   264  2.6300000000000D+00  0.0000000000000D+00  0.0000000000000D+00
   265  2.6400000000000D+00  0.0000000000000D+00  0.0000000000000D+00
   266  2.6500000000000D+00  0.0000000000000D+00  0.0000000000000D+00
   267  2.6600000000000D+00  0.0000000000000D+00  0.0000000000000D+00
   268  2.6700000000000D+00  0.0000000000000D+00  0.0000000000000D+00
   269  2.6800000000000D+00  0.0000000000000D+00  0.0000000000000D+00
   270  2.6900000000000D+00  0.0000000000000D+00  0.0000000000000D+00
   271  2.7000000000000D+00  0.0000000000000D+00  0.0000000000000D+00
   272  2.7100000000000D+00  0.0000000000000D+00  0.0000000000000D+00
   273  2.7200000000000D+00  0.0000000000000D+00  0.0000000000000D+00
   274  2.7300000000000D+00  0.0000000000000D+00  0.0000000000000D+00
   275  2.7400000000000D+00  0.0000000000000D+00  0.0000000000000D+00
   276  2.7500000000000D+00  0.0000000000000D+00  0.0000000000000D+00
   277  2.7600000000000D+00  0.0000000000000D+00  0.0000000000000D+00
   278  2.7700000000000D+00  0.0000000000000D+00  0.0000000000000D+00
   279  2.7800000000000D+00  0.0000000000000D+00  0.0000000000000D+00
   280  2.7900000000000D+00  0.0000000000000D+00  0.0000000000000D+00
   281  2.8000000000000D+00  0.0000000000000D+00  0.0000000000000D+00
   282  2.8100000000000D+00  0.0000000000000D+00  0.0000000000000D+00
   283  2.8200000000000D+00  0.0000000000000D+00  0.0000000000000D+00
   284  2.8300000000000D+00  0.0000000000000D+00  0.0000000000000D+00
   285  2.8400000000000D+00  0.0000000000000D+00  0.0000000000000D+00
   286  2.8500000000000D+00  0.0000000000000D+00  0.0000000000000D+00
   287  2.8600000000000D+00  0.0000000000000D+00  0.0000000000000D+00
   288  2.8700000000000D+00  0.0000000000000D+00  0.0000000000000D+00
   289  2.8800000000000D+00  0.0000000000000D+00  0.0000000000000D+00
   290  2.8900000000000D+00  0.0000000000000D+00  0.0000000000000D+00
   291  2.9000000000000D+00  0.0000000000000D+00  0.0000000000000D+00
   292  2.9100000000000D+00  0.0000000000000D+00  0.0000000000000D+00
   293  2.9200000000000D+00  0.0000000000000D+00  0.0000000000000D+00
   294  2.9300000000000D+00  0.0000000000000D+00  0.0000000000000D+00
   295  2.9400000000000D+00  0.0000000000000D+00  0.0000000000000D+00
   296  2.9500000000000D+00  0.0000000000000D+00  0.0000000000000D+00
   297  2.9600000000000D+00  0.0000000000000D+00  0.0000000000000D+00
   298  2.9700000000000D+00  0.0000000000000D+00  0.0000000000000D+00
   299  2.9800000000000D+00  0.0000000000000D+00  0.0000000000000D+00
   300  2.9900000000000D+00  0.0000000000000D+00  0.0000000000000D+00
   301  3.0000000000000D+00  0.0000000000000D+00  0.0000000000000D+00
   302  3.0100000000000D+00  0.0000000000000D+00  0.0000000000000D+00
   303  3.0200000000000D+00  0.0000000000000D+00  0.0000000000000D+00
   304  3.0300000000000D+00  0.0000000000000D+00  0.0000000000000D+00
   305  3.0400000000000D+00  0.0000000000000D+00  0.0000000000000D+00
   306  3.0500000000000D+00  0.0000000000000D+00  0.0000000000000D+00
   307  3.0600000000000D+00  0.0000000000000D+00  0.0000000000000D+00
   308  3.0700000000000D+00  0.0000000000000D+00  0.0000000000000D+00
   309  3.0800000000000D+00  0.0000000000000D+00  0.0000000000000D+00
   310  3.0900000000000D+00  0.0000000000000D+00  0.0000000000000D+00
   311  3.1000000000000D+00  0.0000000000000D+00  0.0000000000000D+00
   312  3.1100000000000D+00  0.0000000000000D+00  0.0000000000000D+00
   313  3.1200000000000D+00  0.0000000000000D+00  0.0000000000000D+00
   314  3.1300000000000D+00  0.0000000000000D+00  0.0000000000000D+00
   315  3.1400000000000D+00  0.0000000000000D+00  0.0000000000000D+00
   316  3.1500000000000D+00  0.0000000000000D+00  0.0000000000000D+00
   317  3.1600000000000D+00  0.0000000000000D+00  0.0000000000000D+00
   318  3.1700000000000D+00  0.0000000000000D+00  0.0000000000000D+00
   319  3.1800000000000D+00  0.0000000000000D+00  0.0000000000000D+00
   320  3.1900000000000D+00  0.0000000000000D+00  0.0000000000000D+00
   321  3.2000000000000D+00  0.0000000000000D+00  0.0000000000000D+00
   322  3.2100000000000D+00  0.0000000000000D+00  0.0000000000000D+00
   323  3.2200000000000D+00  0.0000000000000D+00  0.0000000000000D+00
   324  3.2300000000000D+00  0.0000000000000D+00  0.0000000000000D+00
   325  3.2400000000000D+00  0.0000000000000D+00  0.0000000000000D+00
   326  3.2500000000000D+00  0.0000000000000D+00  0.0000000000000D+00
   327  3.2600000000000D+00  0.0000000000000D+00  0.0000000000000D+00
   328  3.2700000000000D+00  0.0000000000000D+00  0.0000000000000D+00
   329  3.2800000000000D+00  0.0000000000000D+00  0.0000000000000D+00
   330  3.2900000000000D+00  0.0000000000000D+00  0.0000000000000D+00
   331  3.3000000000000D+00  0.0000000000000D+00  0.0000000000000D+00
   332  3.3100000000000D+00  0.0000000000000D+00  0.0000000000000D+00
   333  3.3200000000000D+00  0.0000000000000D+00  0.0000000000000D+00
   334  3.3300000000000D+00  0.0000000000000D+00  0.0000000000000D+00
   335  3.3400000000000D+00  0.0000000000000D+00  0.0000000000000D+00
   336  3.3500000000000D+00  0.0000000000000D+00  0.0000000000000D+00
   337  3.3600000000000D+00  0.0000000000000D+00  0.0000000000000D+00
   338  3.3700000000000D+00  0.0000000000000D+00  0.0000000000000D+00
   339  3.3800000000000D+00  0.0000000000000D+00  0.0000000000000D+00
   340  3.3900000000000D+00  0.0000000000000D+00  0.0000000000000D+00
   341  3.4000000000000D+00  0.0000000000000D+00  0.0000000000000D+00
   342  3.4100000000000D+00  0.0000000000000D+00  0.0000000000000D+00
   343  3.4200000000000D+00  0.0000000000000D+00  0.0000000000000D+00
   344  3.4300000000000D+00  0.0000000000000D+00  0.0000000000000D+00
   345  3.4400000000000D+00  0.0000000000000D+00  0.0000000000000D+00
   346  3.4500000000000D+00  0.0000000000000D+00  0.0000000000000D+00
   347  3.4600000000000D+00  0.0000000000000D+00  0.0000000000000D+00
   348  3.4700000000000D+00  0.0000000000000D+00  0.0000000000000D+00
   349  3.4800000000000D+00  0.0000000000000D+00  0.0000000000000D+00
   350  3.4900000000000D+00  0.0000000000000D+00  0.0000000000000D+00
   351  3.5000000000000D+00  0.0000000000000D+00  0.0000000000000D+00
   352  3.5100000000000D+00  0.0000000000000D+00  0.0000000000000D+00
   353  3.5200000000000D+00  0.0000000000000D+00  0.0000000000000D+00
   354  3.5300000000000D+00  0.0000000000000D+00  0.0000000000000D+00
   355  3.5400000000000D+00  0.0000000000000D+00  0.0000000000000D+00
   356  3.5500000000000D+00  0.0000000000000D+00  0.0000000000000D+00
   357  3.5600000000000D+00  0.0000000000000D+00  0.0000000000000D+00
   358  3.5700000000000D+00  0.0000000000000D+00  0.0000000000000D+00
   359  3.5800000000000D+00  0.0000000000000D+00  0.0000000000000D+00
   360  3.5900000000000D+00  0.0000000000000D+00  0.0000000000000D+00
   361  3.6000000000000D+00  0.0000000000000D+00  0.0000000000000D+00
   362  3.6100000000000D+00  0.0000000000000D+00  0.0000000000000D+00
   363  3.6200000000000D+00  0.0000000000000D+00  0.0000000000000D+00
   364  3.6300000000000D+00  0.0000000000000D+00  0.0000000000000D+00
   365  3.6400000000000D+00  0.0000000000000D+00  0.0000000000000D+00
   366  3.6500000000000D+00  0.0000000000000D+00  0.0000000000000D+00
   367  3.6600000000000D+00  0.0000000000000D+00  0.0000000000000D+00
   368  3.6700000000000D+00  0.0000000000000D+00  0.0000000000000D+00
   369  3.6800000000000D+00  0.0000000000000D+00  0.0000000000000D+00
   370  3.6900000000000D+00  0.0000000000000D+00  0.0000000000000D+00
   371  3.7000000000000D+00  0.0000000000000D+00  0.0000000000000D+00
   372  3.7100000000000D+00  0.0000000000000D+00  0.0000000000000D+00
   373  3.7200000000000D+00  0.0000000000000D+00  0.0000000000000D+00
   374  3.7300000000000D+00  0.0000000000000D+00  0.0000000000000D+00
   375  3.7400000000000D+00  0.0000000000000D+00  0.0000000000000D+00
   376  3.7500000000000D+00  0.0000000000000D+00  0.0000000000000D+00
   377  3.7600000000000D+00  0.0000000000000D+00  0.0000000000000D+00
   378  3.7700000000000D+00  0.0000000000000D+00  0.0000000000000D+00
   379  3.7800000000000D+00  0.0000000000000D+00  0.0000000000000D+00
   380  3.7900000000000D+00  0.0000000000000D+00  0.0000000000000D+00
   381  3.8000000000000D+00  0.0000000000000D+00  0.0000000000000D+00
   382  3.8100000000000D+00  0.0000000000000D+00  0.0000000000000D+00
   383  3.8200000000000D+00  0.0000000000000D+00  0.0000000000000D+00
   384  3.8300000000000D+00  0.0000000000000D+00  0.0000000000000D+00
   385  3.8400000000000D+00  0.0000000000000D+00  0.0000000000000D+00
   386  3.8500000000000D+00  0.0000000000000D+00  0.0000000000000D+00
   387  3.8600000000000D+00  0.0000000000000D+00  0.0000000000000D+00
   388  3.8700000000000D+00  0.0000000000000D+00  0.0000000000000D+00
   389  3.8800000000000D+00  0.0000000000000D+00  0.0000000000000D+00
   390  3.8900000000000D+00  0.0000000000000D+00  0.0000000000000D+00
   391  3.9000000000000D+00  0.0000000000000D+00  0.0000000000000D+00
   392  3.9100000000000D+00  0.0000000000000D+00  0.0000000000000D+00
   393  3.9200000000000D+00  0.0000000000000D+00  0.0000000000000D+00
   394  3.9300000000000D+00  0.0000000000000D+00  0.0000000000000D+00
   395  3.9400000000000D+00  0.0000000000000D+00  0.0000000000000D+00
   396  3.9500000000000D+00  0.0000000000000D+00  0.0000000000000D+00
   397  3.9600000000000D+00  0.0000000000000D+00  0.0000000000000D+00
   398  3.9700000000000D+00  0.0000000000000D+00  0.0000000000000D+00
   399  3.9800000000000D+00  0.0000000000000D+00  0.0000000000000D+00
   400  3.9900000000000D+00  0.0000000000000D+00  0.0000000000000D+00
   401  4.0000000000000D+00  0.0000000000000D+00  0.0000000000000D+00
   402  4.0100000000000D+00  0.0000000000000D+00  0.0000000000000D+00
   403  4.0200000000000D+00  0.0000000000000D+00  0.0000000000000D+00
   404  4.0300000000000D+00  0.0000000000000D+00  0.0000000000000D+00
   405  4.0400000000000D+00  0.0000000000000D+00  0.0000000000000D+00
   406  4.0500000000000D+00  0.0000000000000D+00  0.0000000000000D+00
   407  4.0600000000000D+00  0.0000000000000D+00  0.0000000000000D+00
   408  4.0700000000000D+00  0.0000000000000D+00  0.0000000000000D+00
   409  4.0800000000000D+00  0.0000000000000D+00  0.0000000000000D+00
   410  4.0900000000000D+00  0.0000000000000D+00  0.0000000000000D+00
   411  4.1000000000000D+00  0.0000000000000D+00  0.0000000000000D+00
   412  4.1100000000000D+00  0.0000000000000D+00  0.0000000000000D+00
   413  4.1200000000000D+00  0.0000000000000D+00  0.0000000000000D+00
   414  4.1300000000000D+00  0.0000000000000D+00  0.0000000000000D+00
   415  4.1400000000000D+00  0.0000000000000D+00  0.0000000000000D+00
   416  4.1500000000000D+00  0.0000000000000D+00  0.0000000000000D+00
   417  4.1600000000000D+00  0.0000000000000D+00  0.0000000000000D+00
   418  4.1700000000000D+00  0.0000000000000D+00  0.0000000000000D+00
   419  4.1800000000000D+00  0.0000000000000D+00  0.0000000000000D+00
   420  4.1900000000000D+00  0.0000000000000D+00  0.0000000000000D+00
   421  4.2000000000000D+00  0.0000000000000D+00  0.0000000000000D+00
   422  4.2100000000000D+00  0.0000000000000D+00  0.0000000000000D+00