Hg    ONCVPSP-3.3.0  r_core=   1.60079   1.60079   1.45509   1.60079
     80.0000     20.0000      220408    zatom,zion,pspd
     8       2   3     4   600     0    pspcod,pspxc,lmax,lloc,mmax,r2well
  5.99000000  0.00000000  0.00000000    rchrg fchrg qchrg
     2     2     2     1     0    nproj
     1     1           extension_switch
   0                         1.6604724010802D+01  2.1438724757620D+00
     1  0.0000000000000D+00 -3.0350089108566D-10  5.0729883488421D-10
     2  1.0000000000000D-02  7.7344315421523D-02 -5.7212269796058D-03
     3  2.0000000000000D-02  1.5447824679496D-01 -1.1304448777908D-02
     4  3.0000000000000D-02  2.3119231376768D-01 -1.6612756103298D-02
     5  4.0000000000000D-02  3.0727883627076D-01 -2.1511420186101D-02
     6  5.0000000000000D-02  3.8253281697092D-01 -2.5868955026463D-02
     7  6.0000000000000D-02  4.5675280271246D-01 -2.9558146390518D-02
     8  7.0000000000000D-02  5.2974171830603D-01 -3.2457037073181D-02
     9  8.0000000000000D-02  6.0130766632482D-01 -3.4449858453179D-02
    10  9.0000000000000D-02  6.7126468694140D-01 -3.5427898989126D-02
    11  1.0000000000000D-01  7.3943347227641D-01 -3.5290301037298D-02
    12  1.1000000000000D-01  8.0564203022778D-01 -3.3944778203966D-02
    13  1.2000000000000D-01  8.6972629330146D-01 -3.1308246367976D-02
    14  1.3000000000000D-01  9.3153066856410D-01 -2.7307362512260D-02
    15  1.4000000000000D-01  9.9090852547884D-01 -2.1878966574320D-02
    16  1.5000000000000D-01  1.0477226190595D+00 -1.4970422653198D-02
    17  1.6000000000000D-01  1.1018454464775D+00 -6.5398570807352D-03
    18  1.7000000000000D-01  1.1531595359737D+00  3.4437079355532D-03
    19  1.8000000000000D-01  1.2015576676517D+00  1.5000325175991D-02
    20  1.9000000000000D-01  1.2469430264563D+00  2.8139196641278D-02
    21  2.0000000000000D-01  1.2892292883583D+00  4.2858848814882D-02
    22  2.1000000000000D-01  1.3283406414679D+00  5.9147405442267D-02
    23  2.2000000000000D-01  1.3642117444734D+00  7.6982953182430D-02
    24  2.3000000000000D-01  1.3967876254466D+00  9.6333994411176D-02
    25  2.4000000000000D-01  1.4260235246546D+00  1.1715998044892D-01
    26  2.5000000000000D-01  1.4518846855710D+00  1.3941191756002D-01
    27  2.6000000000000D-01  1.4743460987785D+00  1.6303303723867D-01
    28  2.7000000000000D-01  1.4933922038847D+00  1.8795952156699D-01
    29  2.8000000000000D-01  1.5090165549473D+00  2.1412127381564D-01
    30  2.9000000000000D-01  1.5212214551948D+00  2.4144272396237D-01
    31  3.0000000000000D-01  1.5300175670535D+00  2.6984365843704D-01
    32  3.1000000000000D-01  1.5354235036273D+00  2.9924006316931D-01
    33  3.2000000000000D-01  1.5374654078425D+00  3.2954496891812D-01
    34  3.3000000000000D-01  1.5361765254400D+00  3.6066928790599D-01
    35  3.4000000000000D-01  1.5315967778984D+00  3.9252263096466D-01
    36  3.5000000000000D-01  1.5237723411809D+00  4.2501409472006D-01
    37  3.6000000000000D-01  1.5127552359332D+00  4.5805300880344D-01
    38  3.7000000000000D-01  1.4986029344163D+00  4.9154963366452D-01
    39  3.8000000000000D-01  1.4813779890421D+00  5.2541580027797D-01
    40  3.9000000000000D-01  1.4611476868946D+00  5.5956548386653D-01
    41  4.0000000000000D-01  1.4379837340730D+00  5.9391530470544D-01
    42  4.1000000000000D-01  1.4119619730903D+00  6.2838495011072D-01
    43  4.2000000000000D-01  1.3831621359100D+00  6.6289751283792D-01
    44  4.3000000000000D-01  1.3516676345135D+00  6.9737974231364D-01
    45  4.4000000000000D-01  1.3175653901673D+00  7.3176220637607D-01
    46  4.5000000000000D-01  1.2809457018150D+00  7.6597936249635D-01
    47  4.6000000000000D-01  1.2419021532628D+00  7.9996953877561D-01
    48  4.7000000000000D-01  1.2005315580684D+00  8.3367482634404D-01
    49  4.8000000000000D-01  1.1569339402905D+00  8.6704088611381D-01
    50  4.9000000000000D-01  1.1112125485261D+00  9.0001667413732D-01
    51  5.0000000000000D-01  1.0634738999558D+00  9.3255409108156D-01
    52  5.1000000000000D-01  1.0138278504544D+00  9.6460756252887D-01
    53  5.2000000000000D-01  9.6238768620533D-01  9.9613355793971D-01
    54  5.3000000000000D-01  9.0927023169954D-01  1.0270900571471D+00
    55  5.4000000000000D-01  8.5459596850563D-01  1.0574359741803D+00
    56  5.5000000000000D-01  7.9848915878179D-01  1.0871305490242D+00
    57  5.6000000000000D-01  7.4107796716282D-01  1.1161327185975D+00
    58  5.7000000000000D-01  6.8249457440900D-01  1.1444004787629D+00
    59  5.8000000000000D-01  6.2287527604929D-01  1.1718902495672D+00
    60  5.9000000000000D-01  5.6236055919583D-01  1.1985562561221D+00
    61  6.0000000000000D-01  5.0109515075229D-01  1.2243499375922D+00
    62  6.1000000000000D-01  4.3922803038635D-01  1.2492193966382D+00
    63  6.2000000000000D-01  3.7691240188899D-01  1.2731089013689D+00
    64  6.3000000000000D-01  3.1430561689786D-01  1.2959584513960D+00
    65  6.4000000000000D-01  2.5156904541571D-01  1.3177034189511D+00
    66  6.5000000000000D-01  1.8886788810955D-01  1.3382742752256D+00
    67  6.6000000000000D-01  1.2637092601839D-01  1.3575964111400D+00
    68  6.7000000000000D-01  6.4250204028528D-02  1.3755900606457D+00
    69  6.8000000000000D-01  2.6806452855806D-03  1.3921703334166D+00
    70  6.9000000000000D-01 -5.8160405407556D-02  1.4072473624222D+00
    71  7.0000000000000D-01 -1.1809371022164D-01  1.4207265704034D+00
    72  7.1000000000000D-01 -1.7693873898037D-01  1.4325090576932D+00
    73  7.2000000000000D-01 -2.3451434088350D-01  1.4424921121893D+00
    74  7.3000000000000D-01 -2.9063948521475D-01  1.4505698405823D+00
    75  7.4000000000000D-01 -3.4513406790759D-01  1.4566339182111D+00
    76  7.5000000000000D-01 -3.9781977978115D-01  1.4605744531762D+00
    77  7.6000000000000D-01 -4.4852103120147D-01  1.4622809585957D+00
    78  7.7000000000000D-01 -4.9706592690578D-01  1.4616434251937D+00
    79  7.8000000000000D-01 -5.4328728374632D-01  1.4585534847553D+00
    80  7.9000000000000D-01 -5.8702368318743D-01  1.4529056534119D+00
    81  8.0000000000000D-01 -6.2812054953620D-01  1.4445986422452D+00
    82  8.1000000000000D-01 -6.6643124411678D-01  1.4335367213447D+00
    83  8.2000000000000D-01 -7.0181816492221D-01  1.4196311222374D+00
    84  8.3000000000000D-01 -7.3415384070835D-01  1.4028014625549D+00
    85  8.4000000000000D-01 -7.6332200804078D-01  1.3829771759207D+00
    86  8.5000000000000D-01 -7.8921865947712D-01  1.3600989293513D+00
    87  8.6000000000000D-01 -8.1175305087183D-01  1.3341200099813D+00
    88  8.7000000000000D-01 -8.3084865573354D-01  1.3050076626488D+00
    89  8.8000000000000D-01 -8.4644405465201D-01  1.2727443598325D+00
    90  8.9000000000000D-01 -8.5849374804446D-01  1.2373289856137D+00
    91  9.0000000000000D-01 -8.6696888085145D-01  1.1987779157467D+00
    92  9.1000000000000D-01 -8.7185786833955D-01  1.1571259765715D+00
    93  9.2000000000000D-01 -8.7316691283893D-01  1.1124272663733D+00
    94  9.3000000000000D-01 -8.7092040205495D-01  1.0647558238942D+00
    95  9.4000000000000D-01 -8.6516118053709D-01  1.0142061300162D+00
    96  9.5000000000000D-01 -8.5595068695844D-01  9.6089343015049D-01
    97  9.6000000000000D-01 -8.4336895104460D-01  9.0495386657529D-01
    98  9.7000000000000D-01 -8.2751444528088D-01  8.4654441184519D-01
    99  9.8000000000000D-01 -8.0850378790331D-01  7.8584259641686D-01
   100  9.9000000000000D-01 -7.8647129516896D-01  7.2304602584968D-01
   101  1.0000000000000D+00 -7.6156838234684D-01  6.5837168509786D-01
   102  1.0100000000000D+00 -7.3396281453037D-01  5.9205502990692D-01
   103  1.0200000000000D+00 -7.0383780990125D-01  5.2434886764094D-01
   104  1.0300000000000D+00 -6.7139099970068D-01  4.5552203234027D-01
   105  1.0400000000000D+00 -6.3683325074670D-01  3.8585786122873D-01
   106  1.0500000000000D+00 -6.0038735795128D-01  3.1565248237297D-01
   107  1.0600000000000D+00 -5.6228661569016D-01  2.4521292535688D-01
   108  1.0700000000000D+00 -5.2277327847304D-01  1.7485506930957D-01
   109  1.0800000000000D+00 -4.8209692264780D-01  1.0490144463644D-01
   110  1.0900000000000D+00 -4.4051272214827D-01  3.5678906805786D-02
   111  1.1000000000000D+00 -3.9827965250116D-01 -3.2483797542785D-02
   112  1.1100000000000D+00 -3.5565863816902D-01 -9.9258550530457D-02
   113  1.1200000000000D+00 -3.1291065938725D-01 -1.6432044562682D-01
   114  1.1300000000000D+00 -2.7029483520062D-01 -2.2735040860276D-01
   115  1.1400000000000D+00 -2.2806649999498D-01 -2.8803783155793D-01
   116  1.1500000000000D+00 -1.8647529113414D-01 -3.4608319418249D-01
   117  1.1600000000000D+00 -1.4576326555497D-01 -4.0120064592991D-01
   118  1.1700000000000D+00 -1.0616306309361D-01 -4.5312052281904D-01
   119  1.1800000000000D+00 -6.7896133972777D-02 -5.0159177300196D-01
   120  1.1900000000000D+00 -3.1171047778683D-02 -5.4638426533477D-01
   121  1.2000000000000D+00  3.8180996769684D-03 -5.8729095647532D-01
   122  1.2100000000000D+00  3.6893165972077D-02 -6.2412989313069D-01
   123  1.2200000000000D+00  6.7893313357114D-02 -6.5674602726455D-01
   124  1.2300000000000D+00  9.6676218033282D-02 -6.8501282372238D-01
   125  1.2400000000000D+00  1.2311912545735D-01 -7.0883364225038D-01
   126  1.2500000000000D+00  1.4711974096603D-01 -7.2814287775832D-01
   127  1.2600000000000D+00  1.6859694602910D-01 -7.4290684417190D-01
   128  1.2700000000000D+00  1.8749133339076D-01 -7.5312439163310D-01
   129  1.2800000000000D+00  2.0376555556592D-01 -7.5882724862754D-01
   130  1.2900000000000D+00  2.1740448208400D-01 -7.6008008199194D-01
   131  1.3000000000000D+00  2.2841516498726D-01 -7.5698027395767D-01
   132  1.3100000000000D+00  2.3682661260966D-01 -7.4965741618142D-01
   133  1.3200000000000D+00  2.4268937303189D-01 -7.3827252276733D-01
   134  1.3300000000000D+00  2.4607493322009D-01 -7.2301697128013D-01
   135  1.3400000000000D+00  2.4707493912570D-01 -7.0411117964515D-01
   136  1.3500000000000D+00  2.4580024482096D-01 -6.8180303106675D-01
   137  1.3600000000000D+00  2.4237980242124D-01 -6.5636606469885D-01
   138  1.3700000000000D+00  2.3695940264114D-01 -6.2809744689799D-01
   139  1.3800000000000D+00  2.2970028097859D-01 -5.9731574572698D-01
   140  1.3900000000000D+00  2.2077760473507D-01 -5.6435853171060D-01
   141  1.4000000000000D+00  2.1037885574693D-01 -5.2957982733072D-01
   142  1.4100000000000D+00  1.9870213413541D-01 -4.9334744479884D-01
   143  1.4200000000000D+00  1.8595436227094D-01 -4.5604017248182D-01
   144  1.4300000000000D+00  1.7234955810579D-01 -4.1804509740707D-01
   145  1.4400000000000D+00  1.5810667927377D-01 -3.7975420264775D-01
   146  1.4500000000000D+00  1.4344836128437D-01 -3.4156250845140D-01
   147  1.4600000000000D+00  1.2859895020077D-01 -3.0386501242928D-01
   148  1.4700000000000D+00  1.1377975608572D-01 -2.6704880022411D-01
   149  1.4800000000000D+00  9.9204904474443D-02 -2.3148626309814D-01
   150  1.4900000000000D+00  8.5076572269378D-02 -1.9752731793939D-01
   151  1.5000000000000D+00  7.1582793987818D-02 -1.6549606268577D-01
   152  1.5100000000000D+00  5.8896462834295D-02 -1.3568950891521D-01
   153  1.5200000000000D+00  4.7173373259532D-02 -1.0837459492053D-01
   154  1.5300000000000D+00  3.6550900328774D-02 -8.3786281102569D-02
   155  1.5400000000000D+00  2.7146700288456D-02 -6.2125641847516D-02
   156  1.5500000000000D+00  1.9061980458376D-02 -4.3568280881322D-02
   157  1.5600000000000D+00  1.2362125992992D-02 -2.8220630693844D-02
   158  1.5700000000000D+00  7.0709811958984D-03 -1.6108516586317D-02
   159  1.5800000000000D+00  3.3062416578648D-03 -7.4833809073285D-03
   160  1.5900000000000D+00  1.1398676373196D-03 -2.5034233362152D-03
   161  1.6000000000000D+00  2.1005071959256D-04 -3.7228698506365D-04
   162  1.6100000000000D+00 -3.2725284678527D-05  1.3341843712756D-04
   163  1.6200000000000D+00 -1.3871655448831D-08  4.1487601123091D-08
   164  1.6300000000000D+00  2.2031821944009D-05 -6.1827583173413D-05
   165  1.6400000000000D+00 -3.1877224510907D-07  1.0280231778056D-06
   166  1.6500000000000D+00 -3.2474930196216D-06  9.9752228179346D-06
   167  1.6600000000000D+00 -8.1466663021722D-08  1.3625852708865D-07
   168  1.6700000000000D+00 -4.7927597444544D-07  8.0162161950222D-07
   169  1.6800000000000D+00  0.0000000000000D+00  0.0000000000000D+00
   170  1.6900000000000D+00  0.0000000000000D+00  0.0000000000000D+00
   171  1.7000000000000D+00  0.0000000000000D+00  0.0000000000000D+00
   172  1.7100000000000D+00  0.0000000000000D+00  0.0000000000000D+00
   173  1.7200000000000D+00  0.0000000000000D+00  0.0000000000000D+00
   174  1.7300000000000D+00  0.0000000000000D+00  0.0000000000000D+00
   175  1.7400000000000D+00  0.0000000000000D+00  0.0000000000000D+00
   176  1.7500000000000D+00  0.0000000000000D+00  0.0000000000000D+00
   177  1.7600000000000D+00  0.0000000000000D+00  0.0000000000000D+00
   178  1.7700000000000D+00  0.0000000000000D+00  0.0000000000000D+00
   179  1.7800000000000D+00  0.0000000000000D+00  0.0000000000000D+00
   180  1.7900000000000D+00  0.0000000000000D+00  0.0000000000000D+00
   181  1.8000000000000D+00  0.0000000000000D+00  0.0000000000000D+00
   182  1.8100000000000D+00  0.0000000000000D+00  0.0000000000000D+00
   183  1.8200000000000D+00  0.0000000000000D+00  0.0000000000000D+00
   184  1.8300000000000D+00  0.0000000000000D+00  0.0000000000000D+00
   185  1.8400000000000D+00  0.0000000000000D+00  0.0000000000000D+00
   186  1.8500000000000D+00  0.0000000000000D+00  0.0000000000000D+00
   187  1.8600000000000D+00  0.0000000000000D+00  0.0000000000000D+00
   188  1.8700000000000D+00  0.0000000000000D+00  0.0000000000000D+00
   189  1.8800000000000D+00  0.0000000000000D+00  0.0000000000000D+00
   190  1.8900000000000D+00  0.0000000000000D+00  0.0000000000000D+00
   191  1.9000000000000D+00  0.0000000000000D+00  0.0000000000000D+00
   192  1.9100000000000D+00  0.0000000000000D+00  0.0000000000000D+00
   193  1.9200000000000D+00  0.0000000000000D+00  0.0000000000000D+00
   194  1.9300000000000D+00  0.0000000000000D+00  0.0000000000000D+00
   195  1.9400000000000D+00  0.0000000000000D+00  0.0000000000000D+00
   196  1.9500000000000D+00  0.0000000000000D+00  0.0000000000000D+00
   197  1.9600000000000D+00  0.0000000000000D+00  0.0000000000000D+00
   198  1.9700000000000D+00  0.0000000000000D+00  0.0000000000000D+00
   199  1.9800000000000D+00  0.0000000000000D+00  0.0000000000000D+00
   200  1.9900000000000D+00  0.0000000000000D+00  0.0000000000000D+00
   201  2.0000000000000D+00  0.0000000000000D+00  0.0000000000000D+00
   202  2.0100000000000D+00  0.0000000000000D+00  0.0000000000000D+00
   203  2.0200000000000D+00  0.0000000000000D+00  0.0000000000000D+00
   204  2.0300000000000D+00  0.0000000000000D+00  0.0000000000000D+00
   205  2.0400000000000D+00  0.0000000000000D+00  0.0000000000000D+00
   206  2.0500000000000D+00  0.0000000000000D+00  0.0000000000000D+00
   207  2.0600000000000D+00  0.0000000000000D+00  0.0000000000000D+00
   208  2.0700000000000D+00  0.0000000000000D+00  0.0000000000000D+00
   209  2.0800000000000D+00  0.0000000000000D+00  0.0000000000000D+00
   210  2.0900000000000D+00  0.0000000000000D+00  0.0000000000000D+00
   211  2.1000000000000D+00  0.0000000000000D+00  0.0000000000000D+00
   212  2.1100000000000D+00  0.0000000000000D+00  0.0000000000000D+00
   213  2.1200000000000D+00  0.0000000000000D+00  0.0000000000000D+00
   214  2.1300000000000D+00  0.0000000000000D+00  0.0000000000000D+00
   215  2.1400000000000D+00  0.0000000000000D+00  0.0000000000000D+00
   216  2.1500000000000D+00  0.0000000000000D+00  0.0000000000000D+00
   217  2.1600000000000D+00  0.0000000000000D+00  0.0000000000000D+00
   218  2.1700000000000D+00  0.0000000000000D+00  0.0000000000000D+00
   219  2.1800000000000D+00  0.0000000000000D+00  0.0000000000000D+00
   220  2.1900000000000D+00  0.0000000000000D+00  0.0000000000000D+00
   221  2.2000000000000D+00  0.0000000000000D+00  0.0000000000000D+00
   222  2.2100000000000D+00  0.0000000000000D+00  0.0000000000000D+00
   223  2.2200000000000D+00  0.0000000000000D+00  0.0000000000000D+00
   224  2.2300000000000D+00  0.0000000000000D+00  0.0000000000000D+00
   225  2.2400000000000D+00  0.0000000000000D+00  0.0000000000000D+00
   226  2.2500000000000D+00  0.0000000000000D+00  0.0000000000000D+00
   227  2.2600000000000D+00  0.0000000000000D+00  0.0000000000000D+00
   228  2.2700000000000D+00  0.0000000000000D+00  0.0000000000000D+00
   229  2.2800000000000D+00  0.0000000000000D+00  0.0000000000000D+00
   230  2.2900000000000D+00  0.0000000000000D+00  0.0000000000000D+00
   231  2.3000000000000D+00  0.0000000000000D+00  0.0000000000000D+00
   232  2.3100000000000D+00  0.0000000000000D+00  0.0000000000000D+00
   233  2.3200000000000D+00  0.0000000000000D+00  0.0000000000000D+00
   234  2.3300000000000D+00  0.0000000000000D+00  0.0000000000000D+00
   235  2.3400000000000D+00  0.0000000000000D+00  0.0000000000000D+00
   236  2.3500000000000D+00  0.0000000000000D+00  0.0000000000000D+00
   237  2.3600000000000D+00  0.0000000000000D+00  0.0000000000000D+00
   238  2.3700000000000D+00  0.0000000000000D+00  0.0000000000000D+00
   239  2.3800000000000D+00  0.0000000000000D+00  0.0000000000000D+00
   240  2.3900000000000D+00  0.0000000000000D+00  0.0000000000000D+00
   241  2.4000000000000D+00  0.0000000000000D+00  0.0000000000000D+00
   242  2.4100000000000D+00  0.0000000000000D+00  0.0000000000000D+00
   243  2.4200000000000D+00  0.0000000000000D+00  0.0000000000000D+00
   244  2.4300000000000D+00  0.0000000000000D+00  0.0000000000000D+00
   245  2.4400000000000D+00  0.0000000000000D+00  0.0000000000000D+00
   246  2.4500000000000D+00  0.0000000000000D+00  0.0000000000000D+00
   247  2.4600000000000D+00  0.0000000000000D+00  0.0000000000000D+00
   248  2.4700000000000D+00  0.0000000000000D+00  0.0000000000000D+00
   249  2.4800000000000D+00  0.0000000000000D+00  0.0000000000000D+00
   250  2.4900000000000D+00  0.0000000000000D+00  0.0000000000000D+00
   251  2.5000000000000D+00  0.0000000000000D+00  0.0000000000000D+00
   252  2.5100000000000D+00  0.0000000000000D+00  0.0000000000000D+00
   253  2.5200000000000D+00  0.0000000000000D+00  0.0000000000000D+00
   254  2.5300000000000D+00  0.0000000000000D+00  0.0000000000000D+00
   255  2.5400000000000D+00  0.0000000000000D+00  0.0000000000000D+00
   256  2.5500000000000D+00  0.0000000000000D+00  0.0000000000000D+00
   257  2.5600000000000D+00  0.0000000000000D+00  0.0000000000000D+00
   258  2.5700000000000D+00  0.0000000000000D+00  0.0000000000000D+00
   259  2.5800000000000D+00  0.0000000000000D+00  0.0000000000000D+00
   260  2.5900000000000D+00  0.0000000000000D+00  0.0000000000000D+00
   261  2.6000000000000D+00  0.0000000000000D+00  0.0000000000000D+00
   262  2.6100000000000D+00  0.0000000000000D+00  0.0000000000000D+00
   263  2.6200000000000D+00  0.0000000000000D+00  0.0000000000000D+00
   264  2.6300000000000D+00  0.0000000000000D+00  0.0000000000000D+00
   265  2.6400000000000D+00  0.0000000000000D+00  0.0000000000000D+00
   266  2.6500000000000D+00  0.0000000000000D+00  0.0000000000000D+00
   267  2.6600000000000D+00  0.0000000000000D+00  0.0000000000000D+00
   268  2.6700000000000D+00  0.0000000000000D+00  0.0000000000000D+00
   269  2.6800000000000D+00  0.0000000000000D+00  0.0000000000000D+00
   270  2.6900000000000D+00  0.0000000000000D+00  0.0000000000000D+00
   271  2.7000000000000D+00  0.0000000000000D+00  0.0000000000000D+00
   272  2.7100000000000D+00  0.0000000000000D+00  0.0000000000000D+00
   273  2.7200000000000D+00  0.0000000000000D+00  0.0000000000000D+00
   274  2.7300000000000D+00  0.0000000000000D+00  0.0000000000000D+00
   275  2.7400000000000D+00  0.0000000000000D+00  0.0000000000000D+00
   276  2.7500000000000D+00  0.0000000000000D+00  0.0000000000000D+00
   277  2.7600000000000D+00  0.0000000000000D+00  0.0000000000000D+00
   278  2.7700000000000D+00  0.0000000000000D+00  0.0000000000000D+00
   279  2.7800000000000D+00  0.0000000000000D+00  0.0000000000000D+00
   280  2.7900000000000D+00  0.0000000000000D+00  0.0000000000000D+00
   281  2.8000000000000D+00  0.0000000000000D+00  0.0000000000000D+00
   282  2.8100000000000D+00  0.0000000000000D+00  0.0000000000000D+00
   283  2.8200000000000D+00  0.0000000000000D+00  0.0000000000000D+00
   284  2.8300000000000D+00  0.0000000000000D+00  0.0000000000000D+00
   285  2.8400000000000D+00  0.0000000000000D+00  0.0000000000000D+00
   286  2.8500000000000D+00  0.0000000000000D+00  0.0000000000000D+00
   287  2.8600000000000D+00  0.0000000000000D+00  0.0000000000000D+00
   288  2.8700000000000D+00  0.0000000000000D+00  0.0000000000000D+00
   289  2.8800000000000D+00  0.0000000000000D+00  0.0000000000000D+00
   290  2.8900000000000D+00  0.0000000000000D+00  0.0000000000000D+00
   291  2.9000000000000D+00  0.0000000000000D+00  0.0000000000000D+00
   292  2.9100000000000D+00  0.0000000000000D+00  0.0000000000000D+00
   293  2.9200000000000D+00  0.0000000000000D+00  0.0000000000000D+00
   294  2.9300000000000D+00  0.0000000000000D+00  0.0000000000000D+00
   295  2.9400000000000D+00  0.0000000000000D+00  0.0000000000000D+00
   296  2.9500000000000D+00  0.0000000000000D+00  0.0000000000000D+00
   297  2.9600000000000D+00  0.0000000000000D+00  0.0000000000000D+00
   298  2.9700000000000D+00  0.0000000000000D+00  0.0000000000000D+00
   299  2.9800000000000D+00  0.0000000000000D+00  0.0000000000000D+00
   300  2.9900000000000D+00  0.0000000000000D+00  0.0000000000000D+00
   301  3.0000000000000D+00  0.0000000000000D+00  0.0000000000000D+00
   302  3.0100000000000D+00  0.0000000000000D+00  0.0000000000000D+00
   303  3.0200000000000D+00  0.0000000000000D+00  0.0000000000000D+00
   304  3.0300000000000D+00  0.0000000000000D+00  0.0000000000000D+00
   305  3.0400000000000D+00  0.0000000000000D+00  0.0000000000000D+00
   306  3.0500000000000D+00  0.0000000000000D+00  0.0000000000000D+00
   307  3.0600000000000D+00  0.0000000000000D+00  0.0000000000000D+00
   308  3.0700000000000D+00  0.0000000000000D+00  0.0000000000000D+00
   309  3.0800000000000D+00  0.0000000000000D+00  0.0000000000000D+00
   310  3.0900000000000D+00  0.0000000000000D+00  0.0000000000000D+00
   311  3.1000000000000D+00  0.0000000000000D+00  0.0000000000000D+00
   312  3.1100000000000D+00  0.0000000000000D+00  0.0000000000000D+00
   313  3.1200000000000D+00  0.0000000000000D+00  0.0000000000000D+00
   314  3.1300000000000D+00  0.0000000000000D+00  0.0000000000000D+00
   315  3.1400000000000D+00  0.0000000000000D+00  0.0000000000000D+00
   316  3.1500000000000D+00  0.0000000000000D+00  0.0000000000000D+00
   317  3.1600000000000D+00  0.0000000000000D+00  0.0000000000000D+00
   318  3.1700000000000D+00  0.0000000000000D+00  0.0000000000000D+00
   319  3.1800000000000D+00  0.0000000000000D+00  0.0000000000000D+00
   320  3.1900000000000D+00  0.0000000000000D+00  0.0000000000000D+00
   321  3.2000000000000D+00  0.0000000000000D+00  0.0000000000000D+00
   322  3.2100000000000D+00  0.0000000000000D+00  0.0000000000000D+00
   323  3.2200000000000D+00  0.0000000000000D+00  0.0000000000000D+00
   324  3.2300000000000D+00  0.0000000000000D+00  0.0000000000000D+00
   325  3.2400000000000D+00  0.0000000000000D+00  0.0000000000000D+00
   326  3.2500000000000D+00  0.0000000000000D+00  0.0000000000000D+00
   327  3.2600000000000D+00  0.0000000000000D+00  0.0000000000000D+00
   328  3.2700000000000D+00  0.0000000000000D+00  0.0000000000000D+00
   329  3.2800000000000D+00  0.0000000000000D+00  0.0000000000000D+00
   330  3.2900000000000D+00  0.0000000000000D+00  0.0000000000000D+00
   331  3.3000000000000D+00  0.0000000000000D+00  0.0000000000000D+00
   332  3.3100000000000D+00  0.0000000000000D+00  0.0000000000000D+00
   333  3.3200000000000D+00  0.0000000000000D+00  0.0000000000000D+00
   334  3.3300000000000D+00  0.0000000000000D+00  0.0000000000000D+00
   335  3.3400000000000D+00  0.0000000000000D+00  0.0000000000000D+00
   336  3.3500000000000D+00  0.0000000000000D+00  0.0000000000000D+00
   337  3.3600000000000D+00  0.0000000000000D+00  0.0000000000000D+00
   338  3.3700000000000D+00  0.0000000000000D+00  0.0000000000000D+00
   339  3.3800000000000D+00  0.0000000000000D+00  0.0000000000000D+00
   340  3.3900000000000D+00  0.0000000000000D+00  0.0000000000000D+00
   341  3.4000000000000D+00  0.0000000000000D+00  0.0000000000000D+00
   342  3.4100000000000D+00  0.0000000000000D+00  0.0000000000000D+00
   343  3.4200000000000D+00  0.0000000000000D+00  0.0000000000000D+00
   344  3.4300000000000D+00  0.0000000000000D+00  0.0000000000000D+00
   345  3.4400000000000D+00  0.0000000000000D+00  0.0000000000000D+00
   346  3.4500000000000D+00  0.0000000000000D+00  0.0000000000000D+00
   347  3.4600000000000D+00  0.0000000000000D+00  0.0000000000000D+00
   348  3.4700000000000D+00  0.0000000000000D+00  0.0000000000000D+00
   349  3.4800000000000D+00  0.0000000000000D+00  0.0000000000000D+00
   350  3.4900000000000D+00  0.0000000000000D+00  0.0000000000000D+00
   351  3.5000000000000D+00  0.0000000000000D+00  0.0000000000000D+00
   352  3.5100000000000D+00  0.0000000000000D+00  0.0000000000000D+00
   353  3.5200000000000D+00  0.0000000000000D+00  0.0000000000000D+00
   354  3.5300000000000D+00  0.0000000000000D+00  0.0000000000000D+00
   355  3.5400000000000D+00  0.0000000000000D+00  0.0000000000000D+00
   356  3.5500000000000D+00  0.0000000000000D+00  0.0000000000000D+00
   357  3.5600000000000D+00  0.0000000000000D+00  0.0000000000000D+00
   358  3.5700000000000D+00  0.0000000000000D+00  0.0000000000000D+00
   359  3.5800000000000D+00  0.0000000000000D+00  0.0000000000000D+00
   360  3.5900000000000D+00  0.0000000000000D+00  0.0000000000000D+00
   361  3.6000000000000D+00  0.0000000000000D+00  0.0000000000000D+00
   362  3.6100000000000D+00  0.0000000000000D+00  0.0000000000000D+00
   363  3.6200000000000D+00  0.0000000000000D+00  0.0000000000000D+00
   364  3.6300000000000D+00  0.0000000000000D+00  0.0000000000000D+00
   365  3.6400000000000D+00  0.0000000000000D+00  0.0000000000000D+00
   366  3.6500000000000D+00  0.0000000000000D+00  0.0000000000000D+00
   367  3.6600000000000D+00  0.0000000000000D+00  0.0000000000000D+00
   368  3.6700000000000D+00  0.0000000000000D+00  0.0000000000000D+00
   369  3.6800000000000D+00  0.0000000000000D+00  0.0000000000000D+00
   370  3.6900000000000D+00  0.0000000000000D+00  0.0000000000000D+00
   371  3.7000000000000D+00  0.0000000000000D+00  0.0000000000000D+00
   372  3.7100000000000D+00  0.0000000000000D+00  0.0000000000000D+00
   373  3.7200000000000D+00  0.0000000000000D+00  0.0000000000000D+00
   374  3.7300000000000D+00  0.0000000000000D+00  0.0000000000000D+00
   375  3.7400000000000D+00  0.0000000000000D+00  0.0000000000000D+00
   376  3.7500000000000D+00  0.0000000000000D+00  0.0000000000000D+00
   377  3.7600000000000D+00  0.0000000000000D+00  0.0000000000000D+00
   378  3.7700000000000D+00  0.0000000000000D+00  0.0000000000000D+00
   379  3.7800000000000D+00  0.0000000000000D+00  0.0000000000000D+00
   380  3.7900000000000D+00  0.0000000000000D+00  0.0000000000000D+00
   381  3.8000000000000D+00  0.0000000000000D+00  0.0000000000000D+00
   382  3.8100000000000D+00  0.0000000000000D+00  0.0000000000000D+00
   383  3.8200000000000D+00  0.0000000000000D+00  0.0000000000000D+00
   384  3.8300000000000D+00  0.0000000000000D+00  0.0000000000000D+00
   385  3.8400000000000D+00  0.0000000000000D+00  0.0000000000000D+00
   386  3.8500000000000D+00  0.0000000000000D+00  0.0000000000000D+00
   387  3.8600000000000D+00  0.0000000000000D+00  0.0000000000000D+00
   388  3.8700000000000D+00  0.0000000000000D+00  0.0000000000000D+00
   389  3.8800000000000D+00  0.0000000000000D+00  0.0000000000000D+00
   390  3.8900000000000D+00  0.0000000000000D+00  0.0000000000000D+00
   391  3.9000000000000D+00  0.0000000000000D+00  0.0000000000000D+00
   392  3.9100000000000D+00  0.0000000000000D+00  0.0000000000000D+00
   393  3.9200000000000D+00  0.0000000000000D+00  0.0000000000000D+00
   394  3.9300000000000D+00  0.0000000000000D+00  0.0000000000000D+00
   395  3.9400000000000D+00  0.0000000000000D+00  0.0000000000000D+00
   396  3.9500000000000D+00  0.0000000000000D+00  0.0000000000000D+00
   397  3.9600000000000D+00  0.0000000000000D+00  0.0000000000000D+00
   398  3.9700000000000D+00  0.0000000000000D+00  0.0000000000000D+00
   399  3.9800000000000D+00  0.0000000000000D+00  0.0000000000000D+00
   400  3.9900000000000D+00  0.0000000000000D+00  0.0000000000000D+00
   401  4.0000000000000D+00  0.0000000000000D+00  0.0000000000000D+00
   402  4.0100000000000D+00  0.0000000000000D+00  0.0000000000000D+00
   403  4.0200000000000D+00  0.0000000000000D+00  0.0000000000000D+00
   404  4.0300000000000D+00  0.0000000000000D+00  0.0000000000000D+00
   405  4.0400000000000D+00  0.0000000000000D+00  0.0000000000000D+00
   406  4.0500000000000D+00  0.0000000000000D+00  0.0000000000000D+00
   407  4.0600000000000D+00  0.0000000000000D+00  0.0000000000000D+00
   408  4.0700000000000D+00  0.0000000000000D+00  0.0000000000000D+00
   409  4.0800000000000D+00  0.0000000000000D+00  0.0000000000000D+00
   410  4.0900000000000D+00  0.0000000000000D+00  0.0000000000000D+00
   411  4.1000000000000D+00  0.0000000000000D+00  0.0000000000000D+00
   412  4.1100000000000D+00  0.0000000000000D+00  0.0000000000000D+00
   413  4.1200000000000D+00  0.0000000000000D+00  0.0000000000000D+00
   414  4.1300000000000D+00  0.0000000000000D+00  0.0000000000000D+00
   415  4.1400000000000D+00  0.0000000000000D+00  0.0000000000000D+00
   416  4.1500000000000D+00  0.0000000000000D+00  0.0000000000000D+00
   417  4.1600000000000D+00  0.0000000000000D+00  0.0000000000000D+00
   418  4.1700000000000D+00  0.0000000000000D+00  0.0000000000000D+00
   419  4.1800000000000D+00  0.0000000000000D+00  0.0000000000000D+00
   420  4.1900000000000D+00  0.0000000000000D+00  0.0000000000000D+00
   421  4.2000000000000D+00  0.0000000000000D+00  0.0000000000000D+00
   422  4.2100000000000D+00  0.0000000000000D+00  0.0000000000000D+00