Hg    ONCVPSP-3.3.0  r_core=   1.40394   1.45509   1.40394   1.60079
     80.0000     20.0000      220408    zatom,zion,pspd
     8       2   3     4   600     0    pspcod,pspxc,lmax,lloc,mmax,r2well
  5.99000000  0.00000000  0.00000000    rchrg fchrg qchrg
     2     2     2     1     0    nproj
     1     1           extension_switch
   0                         1.0415611148879D+01 -7.7174198278702D-01
     1  0.0000000000000D+00  1.7539647512166D-10  4.5773790313675D-09
     2  1.0000000000000D-02  7.1104387667089D-02 -6.9248853477616D-02
     3  2.0000000000000D-02  1.4207329011301D-01 -1.3799109685736D-01
     4  3.0000000000000D-02  2.1277138208822D-01 -2.0572547108946D-01
     5  4.0000000000000D-02  2.8306366058404D-01 -2.7196134279182D-01
     6  5.0000000000000D-02  3.5281561165180D-01 -3.3622382720246D-01
     7  6.0000000000000D-02  4.2189338393352D-01 -3.9805868658703D-01
     8  7.0000000000000D-02  4.9016397093213D-01 -4.5703693472041D-01
     9  8.0000000000000D-02  5.5749540387370D-01 -5.1275908263854D-01
    10  9.0000000000000D-02  6.2375695679997D-01 -5.6485896644548D-01
    11  1.0000000000000D-01  6.8881936527913D-01 -6.1300710447357D-01
    12  1.1000000000000D-01  7.5255505984104D-01 -6.5691353843182D-01
    13  1.2000000000000D-01  8.1483841493283D-01 -6.9633012122566D-01
    14  1.3000000000000D-01  8.7554601385811D-01 -7.3105222276473D-01
    15  1.4000000000000D-01  9.3455692981120D-01 -7.6091983416150D-01
    16  1.5000000000000D-01  9.9175302275433D-01 -7.8581806011924D-01
    17  1.6000000000000D-01  1.0470192515133D+00 -8.0567699886859D-01
    18  1.7000000000000D-01  1.1002440000951D+00 -8.2047101858524D-01
    19  1.8000000000000D-01  1.1513194168597D+00 -8.3021744865981D-01
    20  1.9000000000000D-01  1.2001417648216D+00 -8.3497471334201D-01
    21  2.0000000000000D-01  1.2466117810093D+00 -8.3483994400345D-01
    22  2.1000000000000D-01  1.2906350424898D+00 -8.2994611441369D-01
    23  2.2000000000000D-01  1.3321223363664D+00 -8.2045875087434D-01
    24  2.3000000000000D-01  1.3709900307919D+00 -8.0657227568334D-01
    25  2.4000000000000D-01  1.4071604438073D+00 -7.8850604809721D-01
    26  2.5000000000000D-01  1.4405622066237D+00 -7.6650017163059D-01
    27  2.6000000000000D-01  1.4711306178165D+00 -7.4081114009501D-01
    28  2.7000000000000D-01  1.4988079847952D+00 -7.1170739717627D-01
    29  2.8000000000000D-01  1.5235439488561D+00 -6.7946488553127D-01
    30  2.9000000000000D-01  1.5452957901194D+00 -6.4436266132872D-01
    31  3.0000000000000D-01  1.5640287086949D+00 -6.0667864885383D-01
    32  3.1000000000000D-01  1.5797160785122D+00 -5.6668560725952D-01
    33  3.2000000000000D-01  1.5923396703993D+00 -5.2464737780734D-01
    34  3.3000000000000D-01  1.6018898411818D+00 -4.8081547505085D-01
    35  3.4000000000000D-01  1.6083656858181D+00 -4.3542607944398D-01
    36  3.5000000000000D-01  1.6117751498663D+00 -3.8869748189418D-01
    37  3.6000000000000D-01  1.6121350999062D+00 -3.4082802292843D-01
    38  3.7000000000000D-01  1.6094713499007D+00 -2.9199456052101D-01
    39  3.8000000000000D-01  1.6038186418753D+00 -2.4235149137606D-01
    40  3.9000000000000D-01  1.5952205797190D+00 -1.9203034071137D-01
    41  4.0000000000000D-01  1.5837295153528D+00 -1.4113992550697D-01
    42  4.1000000000000D-01  1.5694063869779D+00 -8.9767085921246D-02
    43  4.2000000000000D-01  1.5523205095857D+00 -3.7977969308694D-02
    44  4.3000000000000D-01  1.5325493183931D+00  1.4180158838736D-02
    45  4.4000000000000D-01  1.5101780663416D+00  6.6676612491537D-02
    46  4.5000000000000D-01  1.4852994772688D+00  1.1949453598399D-01
    47  4.6000000000000D-01  1.4580133568163D+00  1.7262776162499D-01
    48  4.7000000000000D-01  1.4284261635725D+00  2.2607733527360D-01
    49  4.8000000000000D-01  1.3966505433603D+00  2.7984777804332D-01
    50  4.9000000000000D-01  1.3628048299547D+00  3.3394315814015D-01
    51  5.0000000000000D-01  1.3270125158604D+00  3.8836305150490D-01
    52  5.1000000000000D-01  1.2894016970778D+00  4.4309847332025D-01
    53  5.2000000000000D-01  1.2501044960420D+00  4.9812786449094D-01
    54  5.3000000000000D-01  1.2092564671264D+00  5.5341321784548D-01
    55  5.4000000000000D-01  1.1669959892583D+00  6.0889642801801D-01
    56  5.5000000000000D-01  1.1234636502946D+00  6.6449594673180D-01
    57  5.6000000000000D-01  1.0788016278548D+00  7.2010382153112D-01
    58  5.7000000000000D-01  1.0331530712980D+00  7.7558319095227D-01
    59  5.8000000000000D-01  9.8666148947037D-01  8.3076630269942D-01
    60  5.9000000000000D-01  9.3947014872674D-01  8.8545311375770D-01
    61  6.0000000000000D-01  8.9172148556624D-01  9.3941052252240D-01
    62  6.1000000000000D-01  8.4355653799607D-01  9.9237227321713D-01
    63  6.2000000000000D-01  7.9511439947375D-01  1.0440395621034D+00
    64  6.3000000000000D-01  7.4653169896683D-01  1.0940823635312D+00
    65  6.4000000000000D-01  6.9794211032138D-01  1.1421414818752D+00
    66  6.5000000000000D-01  6.4947589374760D-01  1.1878313229610D+00
    67  6.6000000000000D-01  6.0125947182172D-01  1.2307433660565D+00
    68  6.7000000000000D-01  5.5341504197138D-01  1.2704503049381D+00
    69  6.8000000000000D-01  5.0606022696276D-01  1.3065108142050D+00
    70  6.9000000000000D-01  4.5930776445045D-01  1.3384748851244D+00
    71  7.0000000000000D-01  4.1326523619182D-01  1.3658896640685D+00
    72  7.1000000000000D-01  3.6803483706829D-01  1.3883057161065D+00
    73  7.2000000000000D-01  3.2371318361035D-01  1.4052836269361D+00
    74  7.3000000000000D-01  2.8039116129190D-01  1.4164008480824D+00
    75  7.4000000000000D-01  2.3815380945037D-01  1.4212586833910D+00
    76  7.5000000000000D-01  1.9708024230975D-01  1.4194893094289D+00
    77  7.6000000000000D-01  1.5724360423411D-01  1.4107627185568D+00
    78  7.7000000000000D-01  1.1871105703065D-01  1.3947934713165D+00
    79  7.8000000000000D-01  8.1543796852813D-02  1.3713471443842D+00
    80  7.9000000000000D-01  4.5797098031111D-02  1.3402463617591D+00
    81  8.0000000000000D-01  1.1520380984203D-02  1.3013763000878D+00
    82  8.1000000000000D-01 -2.1242698762393D-02  1.2546895640569D+00
    83  8.2000000000000D-01 -5.2454143497059D-02  1.2002103345756D+00
    84  8.3000000000000D-01 -8.2081491252580D-02  1.1380377009443D+00
    85  8.4000000000000D-01 -1.1009768178921D-01  1.0683480982726D+00
    86  8.5000000000000D-01 -1.3648091359625D-01  9.9139678293344D-01
    87  8.6000000000000D-01 -1.6121449475406D-01  9.0751829167678D-01
    88  8.7000000000000D-01 -1.8428669032973D-01  8.1712584400314D-01
    89  8.8000000000000D-01 -2.0569056877050D-01  7.2070966230817D-01
    90  8.9000000000000D-01 -2.2542384951263D-01  6.1883419995547D-01
    91  9.0000000000000D-01 -2.4348875374583D-01  5.1213428357511D-01
    92  9.1000000000000D-01 -2.5989185996850D-01  4.0131019228705D-01
    93  9.2000000000000D-01 -2.7464396564378D-01  2.8712171295904D-01
    94  9.3000000000000D-01 -2.8775995592599D-01  1.7038122677636D-01
    95  9.4000000000000D-01 -2.9925868007817D-01  5.1945898072247D-02
    96  9.5000000000000D-01 -3.0916283585002D-01 -6.7290948708697D-02
    97  9.6000000000000D-01 -3.1749886173870D-01 -1.8640916410635D-01
    98  9.7000000000000D-01 -3.2429683671789D-01 -3.0447170827975D-01
    99  9.8000000000000D-01 -3.2959038670131D-01 -4.2053506139506D-01
   100  9.9000000000000D-01 -3.3341659670463D-01 -5.3365997625624D-01
   101  1.0000000000000D+00 -3.3581592741052D-01 -6.4292243208920D-01
   102  1.0100000000000D+00 -3.3683213458925D-01 -7.4742464214581D-01
   103  1.0200000000000D+00 -3.3651218963783D-01 -8.4630596430250D-01
   104  1.0300000000000D+00 -3.3490619933642D-01 -9.3875356209747D-01
   105  1.0400000000000D+00 -3.3206732280497D-01 -1.0240126642327D+00
   106  1.0500000000000D+00 -3.2805168357534D-01 -1.1013962737774D+00
   107  1.0600000000000D+00 -3.2291827466860D-01 -1.1702941828121D+00
   108  1.0700000000000D+00 -3.1672885459238D-01 -1.2301811561791D+00
   109  1.0800000000000D+00 -3.0954783224914D-01 -1.2806241572837D+00
   110  1.0900000000000D+00 -3.0144213886089D-01 -1.3212885001629D+00
   111  1.1000000000000D+00 -2.9248108520264D-01 -1.3519428268278D+00
   112  1.1100000000000D+00 -2.8273620259478D-01 -1.3724628207346D+00
   113  1.1200000000000D+00 -2.7228106640774D-01 -1.3828335877683D+00
   114  1.1300000000000D+00 -2.6119110107280D-01 -1.3831506511976D+00
   115  1.1400000000000D+00 -2.4954336594752D-01 -1.3736195286377D+00
   116  1.1500000000000D+00 -2.3741632164312D-01 -1.3545538743836D+00
   117  1.1600000000000D+00 -2.2488957685549D-01 -1.3263721952796D+00
   118  1.1700000000000D+00 -2.1204361606489D-01 -1.2895931660503D+00
   119  1.1800000000000D+00 -1.9895950890248D-01 -1.2448295933600D+00
   120  1.1900000000000D+00 -1.8571860219953D-01 -1.1927810896994D+00
   121  1.2000000000000D+00 -1.7240219631148D-01 -1.1342255482435D+00
   122  1.2100000000000D+00 -1.5909120754364D-01 -1.0700095215534D+00
   123  1.2200000000000D+00 -1.4586581882012D-01 -1.0010376230719D+00
   124  1.2300000000000D+00 -1.3280512109466D-01 -9.2826108823245D-01
   125  1.2400000000000D+00 -1.1998674830983D-01 -8.5266564683216D-01
   126  1.2500000000000D+00 -1.0748650887293D-01 -7.7525886604904D-01
   127  1.2600000000000D+00 -9.5378016837529D-02 -6.9705713418387D-01
   128  1.2700000000000D+00 -8.3732326213109D-02 -6.1907246570263D-01
   129  1.2800000000000D+00 -7.2617571804916D-02 -5.4229930676904D-01
   130  1.2900000000000D+00 -6.2098620144697D-02 -4.6770152792876D-01
   131  1.3000000000000D+00 -5.2236734041747D-02 -3.9619978767934D-01
   132  1.3100000000000D+00 -4.3089254160431D-02 -3.2865944455049D-01
   133  1.3200000000000D+00 -3.4709301134861D-02 -2.6587919987501D-01
   134  1.3300000000000D+00 -2.7145501286463D-02 -2.0858063042854D-01
   135  1.3400000000000D+00 -2.0441739006182D-02 -1.5739877020284D-01
   136  1.3500000000000D+00 -1.4636938712239D-02 -1.1287389233084D-01
   137  1.3600000000000D+00 -9.7674361541333D-03 -7.5464729908630D-02
   138  1.3700000000000D+00 -5.8546516798275D-03 -4.5447204408491D-02
   139  1.3800000000000D+00 -2.9080034605663D-03 -2.2926336154105D-02
   140  1.3900000000000D+00 -1.0269308329051D-03 -8.7012084182434D-03
   141  1.4000000000000D+00 -1.5353631843864D-04 -2.1624685177972D-03
   142  1.4100000000000D+00  6.1805614093925D-05 -1.6179393889658D-04
   143  1.4200000000000D+00  6.3545485250058D-06  1.1450360354818D-05
   144  1.4300000000000D+00 -1.9883532537257D-05 -5.4910182913533D-05
   145  1.4400000000000D+00  1.6063737760666D-06  1.7461510607901D-06
   146  1.4500000000000D+00  2.8251380042211D-06  4.5763084047592D-06
   147  1.4600000000000D+00  3.0763598408146D-08  2.4315215369073D-06
   148  1.4700000000000D+00  1.5589122594043D-08  1.2321473849062D-06
   149  1.4800000000000D+00  0.0000000000000D+00  0.0000000000000D+00
   150  1.4900000000000D+00  0.0000000000000D+00  0.0000000000000D+00
   151  1.5000000000000D+00  0.0000000000000D+00  0.0000000000000D+00
   152  1.5100000000000D+00  0.0000000000000D+00  0.0000000000000D+00
   153  1.5200000000000D+00  0.0000000000000D+00  0.0000000000000D+00
   154  1.5300000000000D+00  0.0000000000000D+00  0.0000000000000D+00
   155  1.5400000000000D+00  0.0000000000000D+00  0.0000000000000D+00
   156  1.5500000000000D+00  0.0000000000000D+00  0.0000000000000D+00
   157  1.5600000000000D+00  0.0000000000000D+00  0.0000000000000D+00
   158  1.5700000000000D+00  0.0000000000000D+00  0.0000000000000D+00
   159  1.5800000000000D+00  0.0000000000000D+00  0.0000000000000D+00
   160  1.5900000000000D+00  0.0000000000000D+00  0.0000000000000D+00
   161  1.6000000000000D+00  0.0000000000000D+00  0.0000000000000D+00
   162  1.6100000000000D+00  0.0000000000000D+00  0.0000000000000D+00
   163  1.6200000000000D+00  0.0000000000000D+00  0.0000000000000D+00
   164  1.6300000000000D+00  0.0000000000000D+00  0.0000000000000D+00
   165  1.6400000000000D+00  0.0000000000000D+00  0.0000000000000D+00
   166  1.6500000000000D+00  0.0000000000000D+00  0.0000000000000D+00
   167  1.6600000000000D+00  0.0000000000000D+00  0.0000000000000D+00
   168  1.6700000000000D+00  0.0000000000000D+00  0.0000000000000D+00
   169  1.6800000000000D+00  0.0000000000000D+00  0.0000000000000D+00
   170  1.6900000000000D+00  0.0000000000000D+00  0.0000000000000D+00
   171  1.7000000000000D+00  0.0000000000000D+00  0.0000000000000D+00
   172  1.7100000000000D+00  0.0000000000000D+00  0.0000000000000D+00
   173  1.7200000000000D+00  0.0000000000000D+00  0.0000000000000D+00
   174  1.7300000000000D+00  0.0000000000000D+00  0.0000000000000D+00
   175  1.7400000000000D+00  0.0000000000000D+00  0.0000000000000D+00
   176  1.7500000000000D+00  0.0000000000000D+00  0.0000000000000D+00
   177  1.7600000000000D+00  0.0000000000000D+00  0.0000000000000D+00
   178  1.7700000000000D+00  0.0000000000000D+00  0.0000000000000D+00
   179  1.7800000000000D+00  0.0000000000000D+00  0.0000000000000D+00
   180  1.7900000000000D+00  0.0000000000000D+00  0.0000000000000D+00
   181  1.8000000000000D+00  0.0000000000000D+00  0.0000000000000D+00
   182  1.8100000000000D+00  0.0000000000000D+00  0.0000000000000D+00
   183  1.8200000000000D+00  0.0000000000000D+00  0.0000000000000D+00
   184  1.8300000000000D+00  0.0000000000000D+00  0.0000000000000D+00
   185  1.8400000000000D+00  0.0000000000000D+00  0.0000000000000D+00
   186  1.8500000000000D+00  0.0000000000000D+00  0.0000000000000D+00
   187  1.8600000000000D+00  0.0000000000000D+00  0.0000000000000D+00
   188  1.8700000000000D+00  0.0000000000000D+00  0.0000000000000D+00
   189  1.8800000000000D+00  0.0000000000000D+00  0.0000000000000D+00
   190  1.8900000000000D+00  0.0000000000000D+00  0.0000000000000D+00
   191  1.9000000000000D+00  0.0000000000000D+00  0.0000000000000D+00
   192  1.9100000000000D+00  0.0000000000000D+00  0.0000000000000D+00
   193  1.9200000000000D+00  0.0000000000000D+00  0.0000000000000D+00
   194  1.9300000000000D+00  0.0000000000000D+00  0.0000000000000D+00
   195  1.9400000000000D+00  0.0000000000000D+00  0.0000000000000D+00
   196  1.9500000000000D+00  0.0000000000000D+00  0.0000000000000D+00
   197  1.9600000000000D+00  0.0000000000000D+00  0.0000000000000D+00
   198  1.9700000000000D+00  0.0000000000000D+00  0.0000000000000D+00
   199  1.9800000000000D+00  0.0000000000000D+00  0.0000000000000D+00
   200  1.9900000000000D+00  0.0000000000000D+00  0.0000000000000D+00
   201  2.0000000000000D+00  0.0000000000000D+00  0.0000000000000D+00
   202  2.0100000000000D+00  0.0000000000000D+00  0.0000000000000D+00
   203  2.0200000000000D+00  0.0000000000000D+00  0.0000000000000D+00
   204  2.0300000000000D+00  0.0000000000000D+00  0.0000000000000D+00
   205  2.0400000000000D+00  0.0000000000000D+00  0.0000000000000D+00
   206  2.0500000000000D+00  0.0000000000000D+00  0.0000000000000D+00
   207  2.0600000000000D+00  0.0000000000000D+00  0.0000000000000D+00
   208  2.0700000000000D+00  0.0000000000000D+00  0.0000000000000D+00
   209  2.0800000000000D+00  0.0000000000000D+00  0.0000000000000D+00
   210  2.0900000000000D+00  0.0000000000000D+00  0.0000000000000D+00
   211  2.1000000000000D+00  0.0000000000000D+00  0.0000000000000D+00
   212  2.1100000000000D+00  0.0000000000000D+00  0.0000000000000D+00
   213  2.1200000000000D+00  0.0000000000000D+00  0.0000000000000D+00
   214  2.1300000000000D+00  0.0000000000000D+00  0.0000000000000D+00
   215  2.1400000000000D+00  0.0000000000000D+00  0.0000000000000D+00
   216  2.1500000000000D+00  0.0000000000000D+00  0.0000000000000D+00
   217  2.1600000000000D+00  0.0000000000000D+00  0.0000000000000D+00
   218  2.1700000000000D+00  0.0000000000000D+00  0.0000000000000D+00
   219  2.1800000000000D+00  0.0000000000000D+00  0.0000000000000D+00
   220  2.1900000000000D+00  0.0000000000000D+00  0.0000000000000D+00
   221  2.2000000000000D+00  0.0000000000000D+00  0.0000000000000D+00
   222  2.2100000000000D+00  0.0000000000000D+00  0.0000000000000D+00
   223  2.2200000000000D+00  0.0000000000000D+00  0.0000000000000D+00
   224  2.2300000000000D+00  0.0000000000000D+00  0.0000000000000D+00
   225  2.2400000000000D+00  0.0000000000000D+00  0.0000000000000D+00
   226  2.2500000000000D+00  0.0000000000000D+00  0.0000000000000D+00
   227  2.2600000000000D+00  0.0000000000000D+00  0.0000000000000D+00
   228  2.2700000000000D+00  0.0000000000000D+00  0.0000000000000D+00
   229  2.2800000000000D+00  0.0000000000000D+00  0.0000000000000D+00
   230  2.2900000000000D+00  0.0000000000000D+00  0.0000000000000D+00
   231  2.3000000000000D+00  0.0000000000000D+00  0.0000000000000D+00
   232  2.3100000000000D+00  0.0000000000000D+00  0.0000000000000D+00
   233  2.3200000000000D+00  0.0000000000000D+00  0.0000000000000D+00
   234  2.3300000000000D+00  0.0000000000000D+00  0.0000000000000D+00
   235  2.3400000000000D+00  0.0000000000000D+00  0.0000000000000D+00
   236  2.3500000000000D+00  0.0000000000000D+00  0.0000000000000D+00
   237  2.3600000000000D+00  0.0000000000000D+00  0.0000000000000D+00
   238  2.3700000000000D+00  0.0000000000000D+00  0.0000000000000D+00
   239  2.3800000000000D+00  0.0000000000000D+00  0.0000000000000D+00
   240  2.3900000000000D+00  0.0000000000000D+00  0.0000000000000D+00
   241  2.4000000000000D+00  0.0000000000000D+00  0.0000000000000D+00
   242  2.4100000000000D+00  0.0000000000000D+00  0.0000000000000D+00
   243  2.4200000000000D+00  0.0000000000000D+00  0.0000000000000D+00
   244  2.4300000000000D+00  0.0000000000000D+00  0.0000000000000D+00
   245  2.4400000000000D+00  0.0000000000000D+00  0.0000000000000D+00
   246  2.4500000000000D+00  0.0000000000000D+00  0.0000000000000D+00
   247  2.4600000000000D+00  0.0000000000000D+00  0.0000000000000D+00
   248  2.4700000000000D+00  0.0000000000000D+00  0.0000000000000D+00
   249  2.4800000000000D+00  0.0000000000000D+00  0.0000000000000D+00
   250  2.4900000000000D+00  0.0000000000000D+00  0.0000000000000D+00
   251  2.5000000000000D+00  0.0000000000000D+00  0.0000000000000D+00
   252  2.5100000000000D+00  0.0000000000000D+00  0.0000000000000D+00
   253  2.5200000000000D+00  0.0000000000000D+00  0.0000000000000D+00
   254  2.5300000000000D+00  0.0000000000000D+00  0.0000000000000D+00
   255  2.5400000000000D+00  0.0000000000000D+00  0.0000000000000D+00
   256  2.5500000000000D+00  0.0000000000000D+00  0.0000000000000D+00
   257  2.5600000000000D+00  0.0000000000000D+00  0.0000000000000D+00
   258  2.5700000000000D+00  0.0000000000000D+00  0.0000000000000D+00
   259  2.5800000000000D+00  0.0000000000000D+00  0.0000000000000D+00
   260  2.5900000000000D+00  0.0000000000000D+00  0.0000000000000D+00
   261  2.6000000000000D+00  0.0000000000000D+00  0.0000000000000D+00
   262  2.6100000000000D+00  0.0000000000000D+00  0.0000000000000D+00
   263  2.6200000000000D+00  0.0000000000000D+00  0.0000000000000D+00
   264  2.6300000000000D+00  0.0000000000000D+00  0.0000000000000D+00
   265  2.6400000000000D+00  0.0000000000000D+00  0.0000000000000D+00
   266  2.6500000000000D+00  0.0000000000000D+00  0.0000000000000D+00
   267  2.6600000000000D+00  0.0000000000000D+00  0.0000000000000D+00
   268  2.6700000000000D+00  0.0000000000000D+00  0.0000000000000D+00
   269  2.6800000000000D+00  0.0000000000000D+00  0.0000000000000D+00
   270  2.6900000000000D+00  0.0000000000000D+00  0.0000000000000D+00
   271  2.7000000000000D+00  0.0000000000000D+00  0.0000000000000D+00
   272  2.7100000000000D+00  0.0000000000000D+00  0.0000000000000D+00
   273  2.7200000000000D+00  0.0000000000000D+00  0.0000000000000D+00
   274  2.7300000000000D+00  0.0000000000000D+00  0.0000000000000D+00
   275  2.7400000000000D+00  0.0000000000000D+00  0.0000000000000D+00
   276  2.7500000000000D+00  0.0000000000000D+00  0.0000000000000D+00
   277  2.7600000000000D+00  0.0000000000000D+00  0.0000000000000D+00
   278  2.7700000000000D+00  0.0000000000000D+00  0.0000000000000D+00
   279  2.7800000000000D+00  0.0000000000000D+00  0.0000000000000D+00
   280  2.7900000000000D+00  0.0000000000000D+00  0.0000000000000D+00
   281  2.8000000000000D+00  0.0000000000000D+00  0.0000000000000D+00
   282  2.8100000000000D+00  0.0000000000000D+00  0.0000000000000D+00
   283  2.8200000000000D+00  0.0000000000000D+00  0.0000000000000D+00
   284  2.8300000000000D+00  0.0000000000000D+00  0.0000000000000D+00
   285  2.8400000000000D+00  0.0000000000000D+00  0.0000000000000D+00
   286  2.8500000000000D+00  0.0000000000000D+00  0.0000000000000D+00
   287  2.8600000000000D+00  0.0000000000000D+00  0.0000000000000D+00
   288  2.8700000000000D+00  0.0000000000000D+00  0.0000000000000D+00
   289  2.8800000000000D+00  0.0000000000000D+00  0.0000000000000D+00
   290  2.8900000000000D+00  0.0000000000000D+00  0.0000000000000D+00
   291  2.9000000000000D+00  0.0000000000000D+00  0.0000000000000D+00
   292  2.9100000000000D+00  0.0000000000000D+00  0.0000000000000D+00
   293  2.9200000000000D+00  0.0000000000000D+00  0.0000000000000D+00
   294  2.9300000000000D+00  0.0000000000000D+00  0.0000000000000D+00
   295  2.9400000000000D+00  0.0000000000000D+00  0.0000000000000D+00
   296  2.9500000000000D+00  0.0000000000000D+00  0.0000000000000D+00
   297  2.9600000000000D+00  0.0000000000000D+00  0.0000000000000D+00
   298  2.9700000000000D+00  0.0000000000000D+00  0.0000000000000D+00
   299  2.9800000000000D+00  0.0000000000000D+00  0.0000000000000D+00
   300  2.9900000000000D+00  0.0000000000000D+00  0.0000000000000D+00
   301  3.0000000000000D+00  0.0000000000000D+00  0.0000000000000D+00
   302  3.0100000000000D+00  0.0000000000000D+00  0.0000000000000D+00
   303  3.0200000000000D+00  0.0000000000000D+00  0.0000000000000D+00
   304  3.0300000000000D+00  0.0000000000000D+00  0.0000000000000D+00
   305  3.0400000000000D+00  0.0000000000000D+00  0.0000000000000D+00
   306  3.0500000000000D+00  0.0000000000000D+00  0.0000000000000D+00
   307  3.0600000000000D+00  0.0000000000000D+00  0.0000000000000D+00
   308  3.0700000000000D+00  0.0000000000000D+00  0.0000000000000D+00
   309  3.0800000000000D+00  0.0000000000000D+00  0.0000000000000D+00
   310  3.0900000000000D+00  0.0000000000000D+00  0.0000000000000D+00
   311  3.1000000000000D+00  0.0000000000000D+00  0.0000000000000D+00
   312  3.1100000000000D+00  0.0000000000000D+00  0.0000000000000D+00
   313  3.1200000000000D+00  0.0000000000000D+00  0.0000000000000D+00
   314  3.1300000000000D+00  0.0000000000000D+00  0.0000000000000D+00
   315  3.1400000000000D+00  0.0000000000000D+00  0.0000000000000D+00
   316  3.1500000000000D+00  0.0000000000000D+00  0.0000000000000D+00
   317  3.1600000000000D+00  0.0000000000000D+00  0.0000000000000D+00
   318  3.1700000000000D+00  0.0000000000000D+00  0.0000000000000D+00
   319  3.1800000000000D+00  0.0000000000000D+00  0.0000000000000D+00
   320  3.1900000000000D+00  0.0000000000000D+00  0.0000000000000D+00
   321  3.2000000000000D+00  0.0000000000000D+00  0.0000000000000D+00
   322  3.2100000000000D+00  0.0000000000000D+00  0.0000000000000D+00
   323  3.2200000000000D+00  0.0000000000000D+00  0.0000000000000D+00
   324  3.2300000000000D+00  0.0000000000000D+00  0.0000000000000D+00
   325  3.2400000000000D+00  0.0000000000000D+00  0.0000000000000D+00
   326  3.2500000000000D+00  0.0000000000000D+00  0.0000000000000D+00
   327  3.2600000000000D+00  0.0000000000000D+00  0.0000000000000D+00
   328  3.2700000000000D+00  0.0000000000000D+00  0.0000000000000D+00
   329  3.2800000000000D+00  0.0000000000000D+00  0.0000000000000D+00
   330  3.2900000000000D+00  0.0000000000000D+00  0.0000000000000D+00
   331  3.3000000000000D+00  0.0000000000000D+00  0.0000000000000D+00
   332  3.3100000000000D+00  0.0000000000000D+00  0.0000000000000D+00
   333  3.3200000000000D+00  0.0000000000000D+00  0.0000000000000D+00
   334  3.3300000000000D+00  0.0000000000000D+00  0.0000000000000D+00
   335  3.3400000000000D+00  0.0000000000000D+00  0.0000000000000D+00
   336  3.3500000000000D+00  0.0000000000000D+00  0.0000000000000D+00
   337  3.3600000000000D+00  0.0000000000000D+00  0.0000000000000D+00
   338  3.3700000000000D+00  0.0000000000000D+00  0.0000000000000D+00
   339  3.3800000000000D+00  0.0000000000000D+00  0.0000000000000D+00
   340  3.3900000000000D+00  0.0000000000000D+00  0.0000000000000D+00
   341  3.4000000000000D+00  0.0000000000000D+00  0.0000000000000D+00
   342  3.4100000000000D+00  0.0000000000000D+00  0.0000000000000D+00
   343  3.4200000000000D+00  0.0000000000000D+00  0.0000000000000D+00
   344  3.4300000000000D+00  0.0000000000000D+00  0.0000000000000D+00
   345  3.4400000000000D+00  0.0000000000000D+00  0.0000000000000D+00
   346  3.4500000000000D+00  0.0000000000000D+00  0.0000000000000D+00
   347  3.4600000000000D+00  0.0000000000000D+00  0.0000000000000D+00
   348  3.4700000000000D+00  0.0000000000000D+00  0.0000000000000D+00
   349  3.4800000000000D+00  0.0000000000000D+00  0.0000000000000D+00
   350  3.4900000000000D+00  0.0000000000000D+00  0.0000000000000D+00
   351  3.5000000000000D+00  0.0000000000000D+00  0.0000000000000D+00
   352  3.5100000000000D+00  0.0000000000000D+00  0.0000000000000D+00
   353  3.5200000000000D+00  0.0000000000000D+00  0.0000000000000D+00
   354  3.5300000000000D+00  0.0000000000000D+00  0.0000000000000D+00
   355  3.5400000000000D+00  0.0000000000000D+00  0.0000000000000D+00
   356  3.5500000000000D+00  0.0000000000000D+00  0.0000000000000D+00
   357  3.5600000000000D+00  0.0000000000000D+00  0.0000000000000D+00
   358  3.5700000000000D+00  0.0000000000000D+00  0.0000000000000D+00
   359  3.5800000000000D+00  0.0000000000000D+00  0.0000000000000D+00
   360  3.5900000000000D+00  0.0000000000000D+00  0.0000000000000D+00
   361  3.6000000000000D+00  0.0000000000000D+00  0.0000000000000D+00
   362  3.6100000000000D+00  0.0000000000000D+00  0.0000000000000D+00
   363  3.6200000000000D+00  0.0000000000000D+00  0.0000000000000D+00
   364  3.6300000000000D+00  0.0000000000000D+00  0.0000000000000D+00
   365  3.6400000000000D+00  0.0000000000000D+00  0.0000000000000D+00
   366  3.6500000000000D+00  0.0000000000000D+00  0.0000000000000D+00
   367  3.6600000000000D+00  0.0000000000000D+00  0.0000000000000D+00
   368  3.6700000000000D+00  0.0000000000000D+00  0.0000000000000D+00
   369  3.6800000000000D+00  0.0000000000000D+00  0.0000000000000D+00
   370  3.6900000000000D+00  0.0000000000000D+00  0.0000000000000D+00
   371  3.7000000000000D+00  0.0000000000000D+00  0.0000000000000D+00
   372  3.7100000000000D+00  0.0000000000000D+00  0.0000000000000D+00
   373  3.7200000000000D+00  0.0000000000000D+00  0.0000000000000D+00
   374  3.7300000000000D+00  0.0000000000000D+00  0.0000000000000D+00
   375  3.7400000000000D+00  0.0000000000000D+00  0.0000000000000D+00
   376  3.7500000000000D+00  0.0000000000000D+00  0.0000000000000D+00
   377  3.7600000000000D+00  0.0000000000000D+00  0.0000000000000D+00
   378  3.7700000000000D+00  0.0000000000000D+00  0.0000000000000D+00
   379  3.7800000000000D+00  0.0000000000000D+00  0.0000000000000D+00
   380  3.7900000000000D+00  0.0000000000000D+00  0.0000000000000D+00
   381  3.8000000000000D+00  0.0000000000000D+00  0.0000000000000D+00
   382  3.8100000000000D+00  0.0000000000000D+00  0.0000000000000D+00
   383  3.8200000000000D+00  0.0000000000000D+00  0.0000000000000D+00
   384  3.8300000000000D+00  0.0000000000000D+00  0.0000000000000D+00
   385  3.8400000000000D+00  0.0000000000000D+00  0.0000000000000D+00
   386  3.8500000000000D+00  0.0000000000000D+00  0.0000000000000D+00
   387  3.8600000000000D+00  0.0000000000000D+00  0.0000000000000D+00
   388  3.8700000000000D+00  0.0000000000000D+00  0.0000000000000D+00
   389  3.8800000000000D+00  0.0000000000000D+00  0.0000000000000D+00
   390  3.8900000000000D+00  0.0000000000000D+00  0.0000000000000D+00
   391  3.9000000000000D+00  0.0000000000000D+00  0.0000000000000D+00
   392  3.9100000000000D+00  0.0000000000000D+00  0.0000000000000D+00
   393  3.9200000000000D+00  0.0000000000000D+00  0.0000000000000D+00
   394  3.9300000000000D+00  0.0000000000000D+00  0.0000000000000D+00
   395  3.9400000000000D+00  0.0000000000000D+00  0.0000000000000D+00
   396  3.9500000000000D+00  0.0000000000000D+00  0.0000000000000D+00
   397  3.9600000000000D+00  0.0000000000000D+00  0.0000000000000D+00
   398  3.9700000000000D+00  0.0000000000000D+00  0.0000000000000D+00
   399  3.9800000000000D+00  0.0000000000000D+00  0.0000000000000D+00
   400  3.9900000000000D+00  0.0000000000000D+00  0.0000000000000D+00
   401  4.0000000000000D+00  0.0000000000000D+00  0.0000000000000D+00
   402  4.0100000000000D+00  0.0000000000000D+00  0.0000000000000D+00
   403  4.0200000000000D+00  0.0000000000000D+00  0.0000000000000D+00
   404  4.0300000000000D+00  0.0000000000000D+00  0.0000000000000D+00
   405  4.0400000000000D+00  0.0000000000000D+00  0.0000000000000D+00
   406  4.0500000000000D+00  0.0000000000000D+00  0.0000000000000D+00
   407  4.0600000000000D+00  0.0000000000000D+00  0.0000000000000D+00
   408  4.0700000000000D+00  0.0000000000000D+00  0.0000000000000D+00
   409  4.0800000000000D+00  0.0000000000000D+00  0.0000000000000D+00
   410  4.0900000000000D+00  0.0000000000000D+00  0.0000000000000D+00
   411  4.1000000000000D+00  0.0000000000000D+00  0.0000000000000D+00
   412  4.1100000000000D+00  0.0000000000000D+00  0.0000000000000D+00
   413  4.1200000000000D+00  0.0000000000000D+00  0.0000000000000D+00
   414  4.1300000000000D+00  0.0000000000000D+00  0.0000000000000D+00
   415  4.1400000000000D+00  0.0000000000000D+00  0.0000000000000D+00
   416  4.1500000000000D+00  0.0000000000000D+00  0.0000000000000D+00
   417  4.1600000000000D+00  0.0000000000000D+00  0.0000000000000D+00
   418  4.1700000000000D+00  0.0000000000000D+00  0.0000000000000D+00
   419  4.1800000000000D+00  0.0000000000000D+00  0.0000000000000D+00
   420  4.1900000000000D+00  0.0000000000000D+00  0.0000000000000D+00
   421  4.2000000000000D+00  0.0000000000000D+00  0.0000000000000D+00
   422  4.2100000000000D+00  0.0000000000000D+00  0.0000000000000D+00