Hg    ONCVPSP-3.3.0  r_core=   2.61057   2.45942   2.10614
     80.0000     12.0000      220408    zatom,zion,pspd
     8       2   2     4   600     0    pspcod,pspxc,lmax,lloc,mmax,r2well
  5.99000000  0.00000000  0.00000000    rchrg fchrg qchrg
     2     2     2     0     0    nproj
     1     1           extension_switch
   0                         5.3641715279844D+00  8.4962212743402D-01
     1  0.0000000000000D+00  5.5791482544976D-13 -1.5314138845923D-12
     2  1.0000000000000D-02  7.6424114043713D-03  1.4231411518646D-02
     3  2.0000000000000D-02  1.5305572458464D-02  2.8417399097880D-02
     4  3.0000000000000D-02  2.3010173749028D-02  4.2512662553534D-02
     5  4.0000000000000D-02  3.0776787855560D-02  5.6472148940225D-02
     6  5.0000000000000D-02  3.8625810643265D-02  7.0251175491886D-02
     7  6.0000000000000D-02  4.6577402911519D-02  8.3805551748729D-02
     8  7.0000000000000D-02  5.4651432515694D-02  9.7091700601250D-02
     9  8.0000000000000D-02  6.2867417079614D-02  1.1006677798340D-01
    10  9.0000000000000D-02  7.1244467415215D-02  1.2268879094901D-01
    11  1.0000000000000D-01  7.9801231765128D-02  1.3491671386780D-01
    12  1.1000000000000D-01  8.8555840982898D-02  1.4671060248021D-01
    13  1.2000000000000D-01  9.7525854764385D-02  1.5803170555298D-01
    14  1.3000000000000D-01  1.0672820904261D-01  1.6884257388161D-01
    15  1.4000000000000D-01  1.1617916465683D-01  1.7910716638899D-01
    16  1.5000000000000D-01  1.2589425740501D-01  1.8879095307442D-01
    17  1.6000000000000D-01  1.3588824958701D-01  1.9786101457167D-01
    18  1.7000000000000D-01  1.4617508314408D-01  2.0628613808019D-01
    19  1.8000000000000D-01  1.5676783449774D-01  2.1403690943873D-01
    20  1.9000000000000D-01  1.6767867118922D-01  2.2108580111743D-01
    21  2.0000000000000D-01  1.7891881041797D-01  2.2740725591000D-01
    22  2.1000000000000D-01  1.9049847957510D-01  2.3297776611541D-01
    23  2.2000000000000D-01  2.0242687886486D-01  2.3777594800536D-01
    24  2.3000000000000D-01  2.1471214610410D-01  2.4178261138180D-01
    25  2.4000000000000D-01  2.2736132378670D-01  2.4498082403700D-01
    26  2.5000000000000D-01  2.4038032849626D-01  2.4735597093763D-01
    27  2.6000000000000D-01  2.5377392274704D-01  2.4889580796317D-01
    28  2.7000000000000D-01  2.6754568932902D-01  2.4959051003887D-01
    29  2.8000000000000D-01  2.8169800822934D-01  2.4943271351360D-01
    30  2.9000000000000D-01  2.9623203619795D-01  2.4841755264330D-01
    31  3.0000000000000D-01  3.1114768902092D-01  2.4654269005199D-01
    32  3.1000000000000D-01  3.2644362656045D-01  2.4380834105358D-01
    33  3.2000000000000D-01  3.4211724061574D-01  2.4021729172976D-01
    34  3.3000000000000D-01  3.5816464565386D-01  2.3577491067137D-01
    35  3.4000000000000D-01  3.7458067245478D-01  2.3048915430374D-01
    36  3.5000000000000D-01  3.9135886470916D-01  2.2437056572907D-01
    37  3.6000000000000D-01  4.0849147860223D-01  2.1743226703321D-01
    38  3.7000000000000D-01  4.2596948541105D-01  2.0968994501722D-01
    39  3.8000000000000D-01  4.4378257713698D-01  2.0116183032928D-01
    40  3.9000000000000D-01  4.6191917518871D-01  1.9186866998613D-01
    41  4.0000000000000D-01  4.8036644212535D-01  1.8183369328916D-01
    42  4.1000000000000D-01  4.9911029646248D-01  1.7108257115448D-01
    43  4.2000000000000D-01  5.1813543053780D-01  1.5964336889246D-01
    44  4.3000000000000D-01  5.3742533142617D-01  1.4754649248750D-01
    45  4.4000000000000D-01  5.5696230488720D-01  1.3482462844493D-01
    46  4.5000000000000D-01  5.7672750232177D-01  1.2151267728766D-01
    47  4.6000000000000D-01  5.9670095070683D-01  1.0764768080179D-01
    48  4.7000000000000D-01  6.1686158547088D-01  9.3268743146179D-02
    49  4.8000000000000D-01  6.3718728626531D-01  7.8416945957738D-02
    50  4.9000000000000D-01  6.5765491558002D-01  6.3135257600124D-02
    51  5.0000000000000D-01  6.7824036014407D-01  4.7468436720159D-02
    52  5.1000000000000D-01  6.9891857504556D-01  3.1462930292254D-02
    53  5.2000000000000D-01  7.1966363049720D-01  1.5166766347339D-02
    54  5.3000000000000D-01  7.4044876116743D-01 -1.3705584012886D-03
    55  5.4000000000000D-01  7.6124641798943D-01 -1.8098195807119D-02
    56  5.5000000000000D-01  7.8202832235379D-01 -3.4964068171039D-02
    57  5.6000000000000D-01  8.0276552258335D-01 -5.1914994494734D-02
    58  5.7000000000000D-01  8.2342845258207D-01 -6.8896820833486D-02
    59  5.8000000000000D-01  8.4398699254321D-01 -8.5854554460635D-02
    60  5.9000000000000D-01  8.6441053159534D-01 -1.0273250154211D-01
    61  6.0000000000000D-01  8.8466803225867D-01 -1.1947440800615D-01
    62  6.1000000000000D-01  9.0472809657785D-01 -1.3602360328054D-01
    63  6.2000000000000D-01  9.2455903379148D-01 -1.5232314655761D-01
    64  6.3000000000000D-01  9.4412892939314D-01 -1.6831597523582D-01
    65  6.4000000000000D-01  9.6340571543300D-01 -1.8394505517601D-01
    66  6.5000000000000D-01  9.8235724190438D-01 -1.9915353240054D-01
    67  6.6000000000000D-01  1.0009513490544D+00 -2.1388488585453D-01
    68  6.7000000000000D-01  1.0191559404538D+00 -2.2808308083989D-01
    69  6.8000000000000D-01  1.0369390566566D+00 -2.4169272272616D-01
    70  6.9000000000000D-01  1.0542689492773D+00 -2.5465921053513D-01
    71  7.0000000000000D-01  1.0711141553078D+00 -2.6692888999172D-01
    72  7.1000000000000D-01  1.0874435714973D+00 -2.7844920562855D-01
    73  7.2000000000000D-01  1.1032265286115D+00 -2.8916885152924D-01
    74  7.3000000000000D-01  1.1184328653881D+00 -2.9903792029286D-01
    75  7.4000000000000D-01  1.1330330020043D+00 -3.0800804980152D-01
    76  7.5000000000000D-01  1.1469980128682D+00 -3.1603256737295D-01
    77  7.6000000000000D-01  1.1602996985494D+00 -3.2306663088200D-01
    78  7.7000000000000D-01  1.1729106566597D+00 -3.2906736643716D-01
    79  7.8000000000000D-01  1.1848043514989D+00 -3.3399400220247D-01
    80  7.9000000000000D-01  1.1959551822795D+00 -3.3780799796066D-01
    81  8.0000000000000D-01  1.2063385497465D+00 -3.4047317001919D-01
    82  8.1000000000000D-01  1.2159309210093D+00 -3.4195581106943D-01
    83  8.2000000000000D-01  1.2247098924079D+00 -3.4222480461762D-01
    84  8.3000000000000D-01  1.2326542502356D+00 -3.4125173361713D-01
    85  8.4000000000000D-01  1.2397440291456D+00 -3.3901098294251D-01
    86  8.5000000000000D-01  1.2459605680734D+00 -3.3547983535919D-01
    87  8.6000000000000D-01  1.2512865635118D+00 -3.3063856065645D-01
    88  8.7000000000000D-01  1.2557061199778D+00 -3.2447049762659D-01
    89  8.8000000000000D-01  1.2592047975209D+00 -3.1696212858969D-01
    90  8.9000000000000D-01  1.2617696561256D+00 -3.0810314618097D-01
    91  9.0000000000000D-01  1.2633892968676D+00 -2.9788651213634D-01
    92  9.1000000000000D-01  1.2640538996926D+00 -2.8630850783170D-01
    93  9.2000000000000D-01  1.2637552576927D+00 -2.7336877635212D-01
    94  9.3000000000000D-01  1.2624868077636D+00 -2.5907035588899D-01
    95  9.4000000000000D-01  1.2602436575361D+00 -2.4341970428581D-01
    96  9.5000000000000D-01  1.2570226084820D+00 -2.2642671457695D-01
    97  9.6000000000000D-01  1.2528221751070D+00 -2.0810472138787D-01
    98  9.7000000000000D-01  1.2476426001497D+00 -1.8847049809082D-01
    99  9.8000000000000D-01  1.2414858657195D+00 -1.6754424463500D-01
   100  9.9000000000000D-01  1.2343557003139D+00 -1.4534956599787D-01
   101  1.0000000000000D+00  1.2262575816686D+00 -1.2191344122921D-01
   102  1.0100000000000D+00  1.2171987354025D+00 -9.7266183088813D-02
   103  1.0200000000000D+00  1.2071881294352D+00 -7.1441388305060D-02
   104  1.0300000000000D+00  1.1962364641600D+00 -4.4475878510065D-02
   105  1.0400000000000D+00  1.1843561583740D+00 -1.6409631934807D-02
   106  1.0500000000000D+00  1.1715613309725D+00  1.2714294023110D-02
   107  1.0600000000000D+00  1.1578677784316D+00  4.2849849220485D-02
   108  1.0700000000000D+00  1.1432929481116D+00  7.3948086009163D-02
   109  1.0800000000000D+00  1.1278559074270D+00  1.0595726310066D-01
   110  1.0900000000000D+00  1.1115773089419D+00  1.3882295783159D-01
   111  1.1000000000000D+00  1.0944793514601D+00  1.7248818657745D-01
   112  1.1100000000000D+00  1.0765857371897D+00  2.0689353304064D-01
   113  1.1200000000000D+00  1.0579216250778D+00  2.4197728410588D-01
   114  1.1300000000000D+00  1.0385135804181D+00  2.7767557293566D-01
   115  1.1400000000000D+00  1.0183895208484D+00  3.1392252894997D-01
   116  1.1500000000000D+00  9.9757865886318D-01  3.5065043431555D-01
   117  1.1600000000000D+00  9.7611144098052D-01  3.8778988654175D-01
   118  1.1700000000000D+00  9.5401948370959D-01  4.2526996676108D-01
   119  1.1800000000000D+00  9.3133550647889D-01  4.6301841324904D-01
   120  1.1900000000000D+00  9.0809326168928D-01  5.0096179972526D-01
   121  1.2000000000000D+00  8.8432746207121D-01  5.3902571794966D-01
   122  1.2100000000000D+00  8.6007370553080D-01  5.7713496411641D-01
   123  1.2200000000000D+00  8.3536839767741D-01  6.1521372853345D-01
   124  1.2300000000000D+00  8.1024867223388D-01  6.5318578805915D-01
   125  1.2400000000000D+00  7.8475230953861D-01  6.9097470075370D-01
   126  1.2500000000000D+00  7.5891765335350D-01  7.2850400219556D-01
   127  1.2600000000000D+00  7.3278352619708D-01  7.6569740290317D-01
   128  1.2700000000000D+00  7.0638914343053D-01  8.0247898629102D-01
   129  1.2800000000000D+00  6.7977402632582D-01  8.3877340658824D-01
   130  1.2900000000000D+00  6.5297791434917D-01  8.7450608614149D-01
   131  1.3000000000000D+00  6.2604067689890D-01  9.0960341152044D-01
   132  1.3100000000000D+00  5.9900222473590D-01  9.4399292784822D-01
   133  1.3200000000000D+00  5.7190242134867D-01  9.7760353077378D-01
   134  1.3300000000000D+00  5.4478099449542D-01  1.0103656555143D+00
   135  1.3400000000000D+00  5.1767744816509D-01  1.0422114623965D+00
   136  1.3500000000000D+00  4.9063097520096D-01  1.0730750183285D+00
   137  1.3600000000000D+00  4.6368037082498D-01  1.1028924736593D+00
   138  1.3700000000000D+00  4.3686394730432D-01  1.1316022338689D+00
   139  1.3800000000000D+00  4.1021944999547D-01  1.1591451255645D+00
   140  1.3900000000000D+00  3.8378397499437D-01  1.1854645562766D+00
   141  1.4000000000000D+00  3.5759388862937D-01  1.2105066675276D+00
   142  1.4100000000000D+00  3.3168474900970D-01  1.2342204807243D+00
   143  1.4200000000000D+00  3.0609122985430D-01  1.2565580353874D+00
   144  1.4300000000000D+00  2.8084704681238D-01  1.2774745192760D+00
   145  1.4400000000000D+00  2.5598488646826D-01  1.2969283900237D+00
   146  1.4500000000000D+00  2.3153633824823D-01  1.3148814878240D+00
   147  1.4600000000000D+00  2.0753182939092D-01  1.3312991388788D+00
   148  1.4700000000000D+00  1.8400056318296D-01  1.3461502491951D+00
   149  1.4800000000000D+00  1.6097046061673D-01  1.3594073884576D+00
   150  1.4900000000000D+00  1.3846810562561D-01  1.3710468636989D+00
   151  1.5000000000000D+00  1.1651869406825D-01  1.3810487824508D+00
   152  1.5100000000000D+00  9.5145986555752D-02  1.3893971052741D+00
   153  1.5200000000000D+00  7.4372265307040D-02  1.3960796873133D+00
   154  1.5300000000000D+00  5.4218295080778D-02  1.4010883088965D+00
   155  1.5400000000000D+00  3.4703288344503D-02  1.4044186948971D+00
   156  1.5500000000000D+00  1.5844874724749D-02  1.4060705228889D+00
   157  1.5600000000000D+00 -2.3409251598992D-03  1.4060474199686D+00
   158  1.5700000000000D+00 -1.9839721425452D-02  1.4043569482419D+00
   159  1.5800000000000D+00 -3.6638772177005D-02  1.4010105790305D+00
   160  1.5900000000000D+00 -5.2726996215239D-02  1.3960236557491D+00
   161  1.6000000000000D+00 -6.8094981236531D-02  1.3894153456983D+00
   162  1.6100000000000D+00 -8.2734987432266D-02  1.3812085806764D+00
   163  1.6200000000000D+00 -9.6640946601358D-02  1.3714299868363D+00
   164  1.6300000000000D+00 -1.0980845666594D-01  1.3601098036560D+00
   165  1.6400000000000D+00 -1.2223477177167D-01  1.3472817926104D+00
   166  1.6500000000000D+00 -1.3391878785608D-01  1.3329831354034D+00
   167  1.6600000000000D+00 -1.4486102391537D-01  1.3172543224586D+00
   168  1.6700000000000D+00 -1.5506359887130D-01  1.3001390315819D+00
   169  1.6800000000000D+00 -1.6453020429345D-01  1.2816839975417D+00
   170  1.6900000000000D+00 -1.7326607290757D-01  1.2619388725588D+00
   171  1.7000000000000D+00 -1.8127794316810D-01  1.2409560784941D+00
   172  1.7100000000000D+00 -1.8857401984899D-01  1.2187906507912D+00
   173  1.7200000000000D+00 -1.9516393095745D-01  1.1955000750079D+00
   174  1.7300000000000D+00 -2.0105868094144D-01  1.1711441160445D+00
   175  1.7400000000000D+00 -2.0627060052453D-01  1.1457846409500D+00
   176  1.7500000000000D+00 -2.1081329315136D-01  1.1194854354588D+00
   177  1.7600000000000D+00 -2.1470157840164D-01  1.0923120151665D+00
   178  1.7700000000000D+00 -2.1795143237676D-01  1.0643314315642D+00
   179  1.7800000000000D+00 -2.2057992541813D-01  1.0356120738139D+00
   180  1.7900000000000D+00 -2.2260515720770D-01  1.0062234666007D+00
   181  1.8000000000000D+00 -2.2404618958110D-01  9.7623606486033D-01
   182  1.8100000000000D+00 -2.2492297716662D-01  9.4572104585592D-01
   183  1.8200000000000D+00 -2.2525629613910D-01  9.1475009930297D-01
   184  1.8300000000000D+00 -2.2506767126514D-01  8.8339521613557D-01
   185  1.8400000000000D+00 -2.2437930148671D-01  8.5172847653454D-01
   186  1.8500000000000D+00 -2.2321398427092D-01  8.1982183787122D-01
   187  1.8600000000000D+00 -2.2159503894477D-01  7.8774692317358D-01
   188  1.8700000000000D+00 -2.1954622926546D-01  7.5557481072487D-01
   189  1.8800000000000D+00 -2.1709168544848D-01  7.2337582549842D-01
   190  1.8900000000000D+00 -2.1425582588110D-01  6.9121933285185D-01
   191  1.9000000000000D+00 -2.1106327878784D-01  6.5917353539228D-01
   192  1.9100000000000D+00 -2.0753880401752D-01  6.2730527319711D-01
   193  1.9200000000000D+00 -2.0370721526566D-01  5.9567982842238D-01
   194  1.9300000000000D+00 -1.9959330286946D-01  5.6436073444033D-01
   195  1.9400000000000D+00 -1.9522175747058D-01  5.3340959036054D-01
   196  1.9500000000000D+00 -1.9061709473689D-01  5.0288588135984D-01
   197  1.9600000000000D+00 -1.8580358131304D-01  4.7284680515039D-01
   198  1.9700000000000D+00 -1.8080516234647D-01  4.4334710559593D-01
   199  1.9800000000000D+00 -1.7564539055162D-01  4.1443891307366D-01
   200  1.9900000000000D+00 -1.7034735731876D-01  3.8617159311629D-01
   201  2.0000000000000D+00 -1.6493362574201D-01  3.5859160267316D-01
   202  2.0100000000000D+00 -1.5942616597566D-01  3.3174235514674D-01
   203  2.0200000000000D+00 -1.5384629301421D-01  3.0566409431551D-01
   204  2.0300000000000D+00 -1.4821460693571D-01  2.8039377707367D-01
   205  2.0400000000000D+00 -1.4255093543200D-01  2.5596496334171D-01
   206  2.0500000000000D+00 -1.3687428221812D-01  2.3240772980355D-01
   207  2.0600000000000D+00 -1.3120277042546D-01  2.0974855742003D-01
   208  2.0700000000000D+00 -1.2555360092778D-01  1.8801028066161D-01
   209  2.0800000000000D+00 -1.1994301422004D-01  1.6721204887507D-01
   210  2.0900000000000D+00 -1.1438623896990D-01  1.4736923290332D-01
   211  2.1000000000000D+00 -1.0889740660574D-01  1.2849314910120D-01
   212  2.1100000000000D+00 -1.0348960221697D-01  1.1059142017937D-01
   213  2.1200000000000D+00 -9.8174877419212D-02  9.3668155897484D-02
   214  2.1300000000000D+00 -9.2964278174109D-02  7.7724179984003D-02
   215  2.1400000000000D+00 -8.7867876331853D-02  6.2757214684374D-02
   216  2.1500000000000D+00 -8.2894867819475D-02  4.8762385012666D-02
   217  2.1600000000000D+00 -7.8053540110845D-02  3.5732107817366D-02
   218  2.1700000000000D+00 -7.3351277220004D-02  2.3656137841474D-02
   219  2.1800000000000D+00 -6.8794559109040D-02  1.2521577901985D-02
   220  2.1900000000000D+00 -6.4388994118362D-02  2.3130562435376D-03
   221  2.2000000000000D+00 -6.0139327883249D-02 -6.9872238294289D-03
   222  2.2100000000000D+00 -5.6049464329510D-02 -1.5399380064050D-02
   223  2.2200000000000D+00 -5.2122488476221D-02 -2.2945744046691D-02
   224  2.2300000000000D+00 -4.8360690593200D-02 -2.9650752334364D-02
   225  2.2400000000000D+00 -4.4765593220274D-02 -3.5540829449425D-02
   226  2.2500000000000D+00 -4.1337980096921D-02 -4.0644265967019D-02
   227  2.2600000000000D+00 -3.8077927153723D-02 -4.4991091371400D-02
   228  2.2700000000000D+00 -3.4984835467569D-02 -4.8612942013714D-02
   229  2.2800000000000D+00 -3.2057465740752D-02 -5.1542925369410D-02
   230  2.2900000000000D+00 -2.9293974488662D-02 -5.3815480219121D-02
   231  2.3000000000000D+00 -2.6691951591850D-02 -5.5466233701209D-02
   232  2.3100000000000D+00 -2.4248458989869D-02 -5.6531855860537D-02
   233  2.3200000000000D+00 -2.1960070587003D-02 -5.7049911658586D-02
   234  2.3300000000000D+00 -1.9822912975745D-02 -5.7058711454887D-02
   235  2.3400000000000D+00 -1.7832706903351D-02 -5.6597160255410D-02
   236  2.3500000000000D+00 -1.5984809331015D-02 -5.5704606239346D-02
   237  2.3600000000000D+00 -1.4274255881342D-02 -5.4420689054476D-02
   238  2.3700000000000D+00 -1.2695803502387D-02 -5.2785188484636D-02
   239  2.3800000000000D+00 -1.1243973161351D-02 -5.0837874040809D-02
   240  2.3900000000000D+00 -9.9130925108727D-03 -4.8618355571726D-02
   241  2.4000000000000D+00 -8.6973381750325D-03 -4.6165936035292D-02
   242  2.4100000000000D+00 -7.5907775759529D-03 -4.3519466619093D-02
   243  2.4200000000000D+00 -6.5874103334642D-03 -4.0717204076926D-02
   244  2.4300000000000D+00 -5.6812086438994D-03 -3.7796672122446D-02
   245  2.4400000000000D+00 -4.8661567949825D-03 -3.4794526350181D-02
   246  2.4500000000000D+00 -4.1362898772077D-03 -3.1746422494797D-02
   247  2.4600000000000D+00 -3.4857308168297D-03 -2.8686890676384D-02
   248  2.4700000000000D+00 -2.9087262554794D-03 -2.5649214015147D-02
   249  2.4800000000000D+00 -2.3996812077864D-03 -2.2665311827384D-02
   250  2.4900000000000D+00 -1.9531915034347D-03 -1.9765630364364D-02
   251  2.5000000000000D+00 -1.5640747998119D-03 -1.6979038732579D-02
   252  2.5100000000000D+00 -1.2274000031059D-03 -1.4332730483422D-02
   253  2.5200000000000D+00 -9.3851120337307D-04 -1.1852549943577D-02
   254  2.5300000000000D+00 -6.9304489608726D-04 -9.5640661097841D-03
   255  2.5400000000000D+00 -4.8701325155096D-04 -7.4836462655408D-03
   256  2.5500000000000D+00 -3.1682097591752D-04 -5.6286778968087D-03
   257  2.5600000000000D+00 -1.7964312238937D-04 -4.0088159930510D-03
   258  2.5700000000000D+00 -7.1299048987765D-05 -2.6691211290102D-03
   259  2.5800000000000D+00  1.1117060622628D-05 -1.6329316548245D-03
   260  2.5900000000000D+00  7.2343357221225D-05 -9.2375822103004D-04
   261  2.6000000000000D+00  1.0678312009480D-04 -4.7395003509411D-04
   262  2.6100000000000D+00  1.1319066594641D-04 -2.2062573085647D-04
   263  2.6200000000000D+00  8.6349352327459D-05 -8.0910508288091D-05
   264  2.6300000000000D+00  4.5556748012584D-05 -1.9621109054622D-05
   265  2.6400000000000D+00  6.1970412959813D-06 -9.8527239222750D-07
   266  2.6500000000000D+00 -1.1515542934018D-05  4.4930116148498D-07
   267  2.6600000000000D+00 -1.2292987538415D-05 -1.3217886482595D-06
   268  2.6700000000000D+00 -3.8079763747599D-06 -8.1877235717599D-07
   269  2.6800000000000D+00  2.0059975381161D-06 -7.1859928328612D-07
   270  2.6900000000000D+00  2.9539438974563D-06 -8.7656900704667D-07
   271  2.7000000000000D+00  1.4390442544384D-06 -3.5321436167686D-07
   272  2.7100000000000D+00 -1.4744875016731D-07  2.7547792692563D-07
   273  2.7200000000000D+00 -3.1783710906416D-07  5.9381383569326D-07
   274  2.7300000000000D+00 -2.1565085600098D-07  4.0289965620919D-07
   275  2.7400000000000D+00  0.0000000000000D+00  0.0000000000000D+00
   276  2.7500000000000D+00  0.0000000000000D+00  0.0000000000000D+00
   277  2.7600000000000D+00  0.0000000000000D+00  0.0000000000000D+00
   278  2.7700000000000D+00  0.0000000000000D+00  0.0000000000000D+00
   279  2.7800000000000D+00  0.0000000000000D+00  0.0000000000000D+00
   280  2.7900000000000D+00  0.0000000000000D+00  0.0000000000000D+00
   281  2.8000000000000D+00  0.0000000000000D+00  0.0000000000000D+00
   282  2.8100000000000D+00  0.0000000000000D+00  0.0000000000000D+00
   283  2.8200000000000D+00  0.0000000000000D+00  0.0000000000000D+00
   284  2.8300000000000D+00  0.0000000000000D+00  0.0000000000000D+00
   285  2.8400000000000D+00  0.0000000000000D+00  0.0000000000000D+00
   286  2.8500000000000D+00  0.0000000000000D+00  0.0000000000000D+00
   287  2.8600000000000D+00  0.0000000000000D+00  0.0000000000000D+00
   288  2.8700000000000D+00  0.0000000000000D+00  0.0000000000000D+00
   289  2.8800000000000D+00  0.0000000000000D+00  0.0000000000000D+00
   290  2.8900000000000D+00  0.0000000000000D+00  0.0000000000000D+00
   291  2.9000000000000D+00  0.0000000000000D+00  0.0000000000000D+00
   292  2.9100000000000D+00  0.0000000000000D+00  0.0000000000000D+00
   293  2.9200000000000D+00  0.0000000000000D+00  0.0000000000000D+00
   294  2.9300000000000D+00  0.0000000000000D+00  0.0000000000000D+00
   295  2.9400000000000D+00  0.0000000000000D+00  0.0000000000000D+00
   296  2.9500000000000D+00  0.0000000000000D+00  0.0000000000000D+00
   297  2.9600000000000D+00  0.0000000000000D+00  0.0000000000000D+00
   298  2.9700000000000D+00  0.0000000000000D+00  0.0000000000000D+00
   299  2.9800000000000D+00  0.0000000000000D+00  0.0000000000000D+00
   300  2.9900000000000D+00  0.0000000000000D+00  0.0000000000000D+00
   301  3.0000000000000D+00  0.0000000000000D+00  0.0000000000000D+00
   302  3.0100000000000D+00  0.0000000000000D+00  0.0000000000000D+00
   303  3.0200000000000D+00  0.0000000000000D+00  0.0000000000000D+00
   304  3.0300000000000D+00  0.0000000000000D+00  0.0000000000000D+00
   305  3.0400000000000D+00  0.0000000000000D+00  0.0000000000000D+00
   306  3.0500000000000D+00  0.0000000000000D+00  0.0000000000000D+00
   307  3.0600000000000D+00  0.0000000000000D+00  0.0000000000000D+00
   308  3.0700000000000D+00  0.0000000000000D+00  0.0000000000000D+00
   309  3.0800000000000D+00  0.0000000000000D+00  0.0000000000000D+00
   310  3.0900000000000D+00  0.0000000000000D+00  0.0000000000000D+00
   311  3.1000000000000D+00  0.0000000000000D+00  0.0000000000000D+00
   312  3.1100000000000D+00  0.0000000000000D+00  0.0000000000000D+00
   313  3.1200000000000D+00  0.0000000000000D+00  0.0000000000000D+00
   314  3.1300000000000D+00  0.0000000000000D+00  0.0000000000000D+00
   315  3.1400000000000D+00  0.0000000000000D+00  0.0000000000000D+00
   316  3.1500000000000D+00  0.0000000000000D+00  0.0000000000000D+00
   317  3.1600000000000D+00  0.0000000000000D+00  0.0000000000000D+00
   318  3.1700000000000D+00  0.0000000000000D+00  0.0000000000000D+00
   319  3.1800000000000D+00  0.0000000000000D+00  0.0000000000000D+00
   320  3.1900000000000D+00  0.0000000000000D+00  0.0000000000000D+00
   321  3.2000000000000D+00  0.0000000000000D+00  0.0000000000000D+00
   322  3.2100000000000D+00  0.0000000000000D+00  0.0000000000000D+00
   323  3.2200000000000D+00  0.0000000000000D+00  0.0000000000000D+00
   324  3.2300000000000D+00  0.0000000000000D+00  0.0000000000000D+00
   325  3.2400000000000D+00  0.0000000000000D+00  0.0000000000000D+00
   326  3.2500000000000D+00  0.0000000000000D+00  0.0000000000000D+00
   327  3.2600000000000D+00  0.0000000000000D+00  0.0000000000000D+00
   328  3.2700000000000D+00  0.0000000000000D+00  0.0000000000000D+00
   329  3.2800000000000D+00  0.0000000000000D+00  0.0000000000000D+00
   330  3.2900000000000D+00  0.0000000000000D+00  0.0000000000000D+00
   331  3.3000000000000D+00  0.0000000000000D+00  0.0000000000000D+00
   332  3.3100000000000D+00  0.0000000000000D+00  0.0000000000000D+00
   333  3.3200000000000D+00  0.0000000000000D+00  0.0000000000000D+00
   334  3.3300000000000D+00  0.0000000000000D+00  0.0000000000000D+00
   335  3.3400000000000D+00  0.0000000000000D+00  0.0000000000000D+00
   336  3.3500000000000D+00  0.0000000000000D+00  0.0000000000000D+00
   337  3.3600000000000D+00  0.0000000000000D+00  0.0000000000000D+00
   338  3.3700000000000D+00  0.0000000000000D+00  0.0000000000000D+00
   339  3.3800000000000D+00  0.0000000000000D+00  0.0000000000000D+00
   340  3.3900000000000D+00  0.0000000000000D+00  0.0000000000000D+00
   341  3.4000000000000D+00  0.0000000000000D+00  0.0000000000000D+00
   342  3.4100000000000D+00  0.0000000000000D+00  0.0000000000000D+00
   343  3.4200000000000D+00  0.0000000000000D+00  0.0000000000000D+00
   344  3.4300000000000D+00  0.0000000000000D+00  0.0000000000000D+00
   345  3.4400000000000D+00  0.0000000000000D+00  0.0000000000000D+00
   346  3.4500000000000D+00  0.0000000000000D+00  0.0000000000000D+00
   347  3.4600000000000D+00  0.0000000000000D+00  0.0000000000000D+00
   348  3.4700000000000D+00  0.0000000000000D+00  0.0000000000000D+00
   349  3.4800000000000D+00  0.0000000000000D+00  0.0000000000000D+00
   350  3.4900000000000D+00  0.0000000000000D+00  0.0000000000000D+00
   351  3.5000000000000D+00  0.0000000000000D+00  0.0000000000000D+00
   352  3.5100000000000D+00  0.0000000000000D+00  0.0000000000000D+00
   353  3.5200000000000D+00  0.0000000000000D+00  0.0000000000000D+00
   354  3.5300000000000D+00  0.0000000000000D+00  0.0000000000000D+00
   355  3.5400000000000D+00  0.0000000000000D+00  0.0000000000000D+00
   356  3.5500000000000D+00  0.0000000000000D+00  0.0000000000000D+00
   357  3.5600000000000D+00  0.0000000000000D+00  0.0000000000000D+00
   358  3.5700000000000D+00  0.0000000000000D+00  0.0000000000000D+00
   359  3.5800000000000D+00  0.0000000000000D+00  0.0000000000000D+00
   360  3.5900000000000D+00  0.0000000000000D+00  0.0000000000000D+00
   361  3.6000000000000D+00  0.0000000000000D+00  0.0000000000000D+00
   362  3.6100000000000D+00  0.0000000000000D+00  0.0000000000000D+00
   363  3.6200000000000D+00  0.0000000000000D+00  0.0000000000000D+00
   364  3.6300000000000D+00  0.0000000000000D+00  0.0000000000000D+00
   365  3.6400000000000D+00  0.0000000000000D+00  0.0000000000000D+00
   366  3.6500000000000D+00  0.0000000000000D+00  0.0000000000000D+00
   367  3.6600000000000D+00  0.0000000000000D+00  0.0000000000000D+00
   368  3.6700000000000D+00  0.0000000000000D+00  0.0000000000000D+00
   369  3.6800000000000D+00  0.0000000000000D+00  0.0000000000000D+00
   370  3.6900000000000D+00  0.0000000000000D+00  0.0000000000000D+00
   371  3.7000000000000D+00  0.0000000000000D+00  0.0000000000000D+00
   372  3.7100000000000D+00  0.0000000000000D+00  0.0000000000000D+00
   373  3.7200000000000D+00  0.0000000000000D+00  0.0000000000000D+00
   374  3.7300000000000D+00  0.0000000000000D+00  0.0000000000000D+00
   375  3.7400000000000D+00  0.0000000000000D+00  0.0000000000000D+00
   376  3.7500000000000D+00  0.0000000000000D+00  0.0000000000000D+00
   377  3.7600000000000D+00  0.0000000000000D+00  0.0000000000000D+00
   378  3.7700000000000D+00  0.0000000000000D+00  0.0000000000000D+00
   379  3.7800000000000D+00  0.0000000000000D+00  0.0000000000000D+00
   380  3.7900000000000D+00  0.0000000000000D+00  0.0000000000000D+00
   381  3.8000000000000D+00  0.0000000000000D+00  0.0000000000000D+00
   382  3.8100000000000D+00  0.0000000000000D+00  0.0000000000000D+00
   383  3.8200000000000D+00  0.0000000000000D+00  0.0000000000000D+00
   384  3.8300000000000D+00  0.0000000000000D+00  0.0000000000000D+00
   385  3.8400000000000D+00  0.0000000000000D+00  0.0000000000000D+00
   386  3.8500000000000D+00  0.0000000000000D+00  0.0000000000000D+00
   387  3.8600000000000D+00  0.0000000000000D+00  0.0000000000000D+00
   388  3.8700000000000D+00  0.0000000000000D+00  0.0000000000000D+00
   389  3.8800000000000D+00  0.0000000000000D+00  0.0000000000000D+00
   390  3.8900000000000D+00  0.0000000000000D+00  0.0000000000000D+00
   391  3.9000000000000D+00  0.0000000000000D+00  0.0000000000000D+00
   392  3.9100000000000D+00  0.0000000000000D+00  0.0000000000000D+00
   393  3.9200000000000D+00  0.0000000000000D+00  0.0000000000000D+00
   394  3.9300000000000D+00  0.0000000000000D+00  0.0000000000000D+00
   395  3.9400000000000D+00  0.0000000000000D+00  0.0000000000000D+00
   396  3.9500000000000D+00  0.0000000000000D+00  0.0000000000000D+00
   397  3.9600000000000D+00  0.0000000000000D+00  0.0000000000000D+00
   398  3.9700000000000D+00  0.0000000000000D+00  0.0000000000000D+00
   399  3.9800000000000D+00  0.0000000000000D+00  0.0000000000000D+00
   400  3.9900000000000D+00  0.0000000000000D+00  0.0000000000000D+00
   401  4.0000000000000D+00  0.0000000000000D+00  0.0000000000000D+00
   402  4.0100000000000D+00  0.0000000000000D+00  0.0000000000000D+00
   403  4.0200000000000D+00  0.0000000000000D+00  0.0000000000000D+00
   404  4.0300000000000D+00  0.0000000000000D+00  0.0000000000000D+00
   405  4.0400000000000D+00  0.0000000000000D+00  0.0000000000000D+00
   406  4.0500000000000D+00  0.0000000000000D+00  0.0000000000000D+00
   407  4.0600000000000D+00  0.0000000000000D+00  0.0000000000000D+00
   408  4.0700000000000D+00  0.0000000000000D+00  0.0000000000000D+00
   409  4.0800000000000D+00  0.0000000000000D+00  0.0000000000000D+00
   410  4.0900000000000D+00  0.0000000000000D+00  0.0000000000000D+00
   411  4.1000000000000D+00  0.0000000000000D+00  0.0000000000000D+00
   412  4.1100000000000D+00  0.0000000000000D+00  0.0000000000000D+00
   413  4.1200000000000D+00  0.0000000000000D+00  0.0000000000000D+00
   414  4.1300000000000D+00  0.0000000000000D+00  0.0000000000000D+00
   415  4.1400000000000D+00  0.0000000000000D+00  0.0000000000000D+00
   416  4.1500000000000D+00  0.0000000000000D+00  0.0000000000000D+00
   417  4.1600000000000D+00  0.0000000000000D+00  0.0000000000000D+00
   418  4.1700000000000D+00  0.0000000000000D+00  0.0000000000000D+00
   419  4.1800000000000D+00  0.0000000000000D+00  0.0000000000000D+00
   420  4.1900000000000D+00  0.0000000000000D+00  0.0000000000000D+00
   421  4.2000000000000D+00  0.0000000000000D+00  0.0000000000000D+00
   422  4.2100000000000D+00  0.0000000000000D+00  0.0000000000000D+00