V     ONCVPSP-3.3.0  r_core=   1.31479   1.31479   1.66904
     23.0000     13.0000      220408    zatom,zion,pspd
     8       2   2     4   600     0    pspcod,pspxc,lmax,lloc,mmax,r2well
  5.99000000  0.00000000  0.00000000    rchrg fchrg qchrg
     2     2     2     0     0    nproj
     1     1           extension_switch
   0                         1.1788934497619D+01  1.3865864639140D+00
     1  0.0000000000000D+00 -1.6780655753834D-09  5.5550278266203D-09
     2  1.0000000000000D-02  9.1449633561100D-02 -4.4490466582312D-02
     3  2.0000000000000D-02  1.8259546819674D-01 -8.8532808037016D-02
     4  3.0000000000000D-02  2.7313572537304D-01 -1.3168416566797D-01
     5  4.0000000000000D-02  3.6277264124299D-01 -1.7351213013910D-01
     6  5.0000000000000D-02  4.5121440918758D-01 -2.1359975884838D-01
     7  6.0000000000000D-02  5.3817704581395D-01 -2.5155034857228D-01
     8  7.0000000000000D-02  6.2338615690685D-01 -2.8699188845922D-01
     9  8.0000000000000D-02  7.0657858150741D-01 -3.1958112400520D-01
    10  9.0000000000000D-02  7.8750389433594D-01 -3.4900716940636D-01
    11  1.0000000000000D-01  8.6592574914585D-01 -3.7499461353223D-01
    12  1.1000000000000D-01  9.4162304825393D-01 -3.9730607356463D-01
    13  1.2000000000000D-01  1.0143909263910D+00 -4.1574415994650D-01
    14  1.3000000000000D-01  1.0840415401060D+00 -4.3015282651566D-01
    15  1.4000000000000D-01  1.1504046571808D+00 -4.4041809038108D-01
    16  1.5000000000000D-01  1.2133280438186D+00 -4.4646811704717D-01
    17  1.6000000000000D-01  1.2726776506953D+00 -4.4827267731275D-01
    18  1.7000000000000D-01  1.3283376022490D+00 -4.4584199337120D-01
    19  1.8000000000000D-01  1.3802099967809D+00 -4.3922500212526D-01
    20  1.9000000000000D-01  1.4282145279814D+00 -4.2850707381597D-01
    21  2.0000000000000D-01  1.4722879413296D+00 -4.1380723347035D-01
    22  2.1000000000000D-01  1.5123833413988D+00 -3.9527494123004D-01
    23  2.2000000000000D-01  1.5484693683751D+00 -3.7308649517689D-01
    24  2.3000000000000D-01  1.5805292640320D+00 -3.4744112668623D-01
    25  2.4000000000000D-01  1.6085598489600D+00 -3.1855686349550D-01
    26  2.5000000000000D-01  1.6325704339960D+00 -2.8666623947938D-01
    27  2.6000000000000D-01  1.6525816895213D+00 -2.5201193249877D-01
    28  2.7000000000000D-01  1.6686244965695D+00 -2.1484241259315D-01
    29  2.8000000000000D-01  1.6807388035178D+00 -1.7540768219126D-01
    30  2.9000000000000D-01  1.6889725115146D+00 -1.3395518792523D-01
    31  3.0000000000000D-01  1.6933804107411D+00 -9.0725980084201D-02
    32  3.1000000000000D-01  1.6940231881332D+00 -4.5951190784499D-02
    33  3.2000000000000D-01  1.6909665253175D+00  1.5110434757391D-04
    34  3.3000000000000D-01  1.6842803032911D+00  4.7378583684726D-02
    35  3.4000000000000D-01  1.6740379278214D+00  9.5546887594685D-02
    36  3.5000000000000D-01  1.6603157867197D+00  1.4449129775085D-01
    37  3.6000000000000D-01  1.6431928470895D+00  1.9406785889152D-01
    38  3.7000000000000D-01  1.6227503974311D+00  2.4415392506306D-01
    39  3.8000000000000D-01  1.5990719361563D+00  2.9464812368007D-01
    40  3.9000000000000D-01  1.5722432046876D+00  3.4546974223201D-01
    41  4.0000000000000D-01  1.5423523599505D+00  3.9655755394847D-01
    42  4.1000000000000D-01  1.5094902777872D+00  4.4786810999696D-01
    43  4.2000000000000D-01  1.4737509756702D+00  4.9937353661764D-01
    44  4.3000000000000D-01  1.4352321401538D+00  5.5105888579998D-01
    45  4.4000000000000D-01  1.3940357418195D+00  6.0291909747762D-01
    46  4.5000000000000D-01  1.3502687181002D+00  6.5495563958774D-01
    47  4.6000000000000D-01  1.3040437023604D+00  7.0717289953743D-01
    48  4.7000000000000D-01  1.2554797760099D+00  7.5957440650322D-01
    49  4.8000000000000D-01  1.2047032192670D+00  8.1215896843497D-01
    50  4.9000000000000D-01  1.1518482354940D+00  8.6491681054346D-01
    51  5.0000000000000D-01  1.0970576238298D+00  9.1782580335225D-01
    52  5.1000000000000D-01  1.0404833751408D+00  9.7084786804172D-01
    53  5.2000000000000D-01  9.8228716711873D-01  1.0239256447937D+00
    54  5.3000000000000D-01  9.2264073565028D-01  1.0769795061772D+00
    55  5.4000000000000D-01  8.6172610137090D-01  1.1299049923344D+00
    56  5.5000000000000D-01  7.9973563255055D-01  1.1825707379181D+00
    57  5.6000000000000D-01  7.3687192812178D-01  1.2348169524998D+00
    58  5.7000000000000D-01  6.7334750770882D-01  1.2864545066131D+00
    59  5.8000000000000D-01  6.0938429888300D-01  1.3372646649486D+00
    60  5.9000000000000D-01  5.4521291553530D-01  1.3869994965294D+00
    61  6.0000000000000D-01  4.8107172510699D-01  1.4353829793353D+00
    62  6.1000000000000D-01  4.1720570644830D-01  1.4821128038301D+00
    63  6.2000000000000D-01  3.5386510415189D-01  1.5268628665986D+00
    64  6.3000000000000D-01  2.9130388930485D-01  1.5692864319074D+00
    65  6.4000000000000D-01  2.2977804063053D-01  1.6090199257606D+00
    66  6.5000000000000D-01  1.6954366384820D-01  1.6456873142497D+00
    67  6.6000000000000D-01  1.1085497075326D-01  1.6789050057411D+00
    68  6.7000000000000D-01  5.3962142876257D-02  1.7082872051460D+00
    69  6.8000000000000D-01 -8.9089241711429D-04  1.7334516382894D+00
    70  6.9000000000000D-01 -5.3468742921059D-02  1.7540255553974D+00
    71  7.0000000000000D-01 -1.0354685710428D-01  1.7696519152540D+00
    72  7.1000000000000D-01 -1.5091381996888D-01  1.7799956457056D+00
    73  7.2000000000000D-01 -1.9537360403902D-01  1.7847498720872D+00
    74  7.3000000000000D-01 -2.3674773981087D-01  1.7836420028854D+00
    75  7.4000000000000D-01 -2.7487737015441D-01  1.7764395616412D+00
    76  7.5000000000000D-01 -3.0962515392963D-01  1.7629556557443D+00
    77  7.6000000000000D-01 -3.4087698546825D-01  1.7430539763838D+00
    78  7.7000000000000D-01 -3.6854349856585D-01  1.7166532294821D+00
    79  7.8000000000000D-01 -3.9256132619609D-01  1.6837309048544D+00
    80  7.9000000000000D-01 -4.1289409027445D-01  1.6443263000220D+00
    81  8.0000000000000D-01 -4.2953309942183D-01  1.5985427259530D+00
    82  8.1000000000000D-01 -4.4249773673514D-01  1.5465488342702D+00
    83  8.2000000000000D-01 -4.5183552402414D-01  1.4885790190398D+00
    84  8.3000000000000D-01 -4.5762185373584D-01  1.4249328608676D+00
    85  8.4000000000000D-01 -4.5995938478866D-01  1.3559735964570D+00
    86  8.5000000000000D-01 -4.5897710369464D-01  1.2821256127625D+00
    87  8.6000000000000D-01 -4.5482905757350D-01  1.2038709811376D+00
    88  8.7000000000000D-01 -4.4769277086884D-01  1.1217450631330D+00
    89  8.8000000000000D-01 -4.3776736267424D-01  1.0363312355859D+00
    90  8.9000000000000D-01 -4.2527138647749D-01  9.4825479804615D-01
    91  9.0000000000000D-01 -4.1044041874669D-01  8.5817614015569D-01
    92  9.1000000000000D-01 -3.9352442703078D-01  7.6678326005535D-01
    93  9.2000000000000D-01 -3.7478495205094D-01  6.7478373698987D-01
    94  9.3000000000000D-01 -3.5449214154678D-01  5.8289627179464D-01
    95  9.4000000000000D-01 -3.3292167635329D-01  4.9184191767636D-01
    96  9.5000000000000D-01 -3.1035163125483D-01  4.0233513043580D-01
    97  9.6000000000000D-01 -2.8705931456669D-01  3.1507477193688D-01
    98  9.7000000000000D-01 -2.6331813109590D-01  2.3073520309195D-01
    99  9.8000000000000D-01 -2.3939451308530D-01  1.4995760274232D-01
   100  9.9000000000000D-01 -2.1554496298071D-01  7.3341646676641D-02
   101  1.0000000000000D+00 -1.9201325035624D-01  1.4376765628972D-03
   102  1.0100000000000D+00 -1.6902780313218D-01 -6.5260518094962D-02
   103  1.0200000000000D+00 -1.4679933023472D-01 -1.2632219099866D-01
   104  1.0300000000000D+00 -1.2551870945690D-01 -1.8138529955135D-01
   105  1.0400000000000D+00 -1.0535517003691D-01 -2.3016124437707D-01
   106  1.0500000000000D+00 -8.6454794800730D-02 -2.7243861191461D-01
   107  1.0600000000000D+00 -6.8939361686268D-02 -3.0808585976817D-01
   108  1.0700000000000D+00 -5.2905538895189D-02 -3.3705290184568D-01
   109  1.0800000000000D+00 -3.8424442134491D-02 -3.5937156835455D-01
   110  1.0900000000000D+00 -2.5541556861052D-02 -3.7515493304785D-01
   111  1.1000000000000D+00 -1.4277021713154D-02 -3.8459552114703D-01
   112  1.1100000000000D+00 -4.6262639185154D-03 -3.8796242824383D-01
   113  1.1200000000000D+00  3.4390290411973D-03 -3.8559740085853D-01
   114  1.1300000000000D+00  9.9696219136259D-03 -3.7790994399979D-01
   115  1.1400000000000D+00  1.5037155252635D-02 -3.6537154156313D-01
   116  1.1500000000000D+00  1.8732311299263D-02 -3.4850908876730D-01
   117  1.1600000000000D+00  2.1162758276380D-02 -3.2789765117165D-01
   118  1.1700000000000D+00  2.2450913819201D-02 -3.0415268023983D-01
   119  1.1800000000000D+00  2.2731560947246D-02 -2.7792178510290D-01
   120  1.1900000000000D+00  2.2149406584727D-02 -2.4987636998778D-01
   121  1.2000000000000D+00  2.0856410259448D-02 -2.2070247261902D-01
   122  1.2100000000000D+00  1.9009767348354D-02 -1.9109406635411D-01
   123  1.2200000000000D+00  1.6768302753304D-02 -1.6174040915949D-01
   124  1.2300000000000D+00  1.4287272247681D-02 -1.3330745773054D-01
   125  1.2400000000000D+00  1.1712941441805D-02 -1.0641894659132D-01
   126  1.2500000000000D+00  9.1789764056148D-03 -8.1644346274401D-02
   127  1.2600000000000D+00  6.8043541126979D-03 -5.9492543773149D-02
   128  1.2700000000000D+00  4.6913204619658D-03 -4.0407072485993D-02
   129  1.2800000000000D+00  2.9226711531844D-03 -2.4753726364818D-02
   130  1.2900000000000D+00  1.5494582643395D-03 -1.2736420987562D-02
   131  1.3000000000000D+00  6.4621123341536D-04 -4.8072747352133D-03
   132  1.3100000000000D+00  2.2695472266637D-04 -1.0515686024169D-03
   133  1.3200000000000D+00  6.6567995940556D-05  2.1646041175584D-05
   134  1.3300000000000D+00  1.8457918648888D-06  9.0458543845544D-06
   135  1.3400000000000D+00 -4.7089727268176D-06 -4.0550691437959D-05
   136  1.3500000000000D+00  1.2147625909819D-06  4.1547179080805D-06
   137  1.3600000000000D+00  7.1517123036778D-07  3.1408635147528D-06
   138  1.3700000000000D+00 -3.8353483376973D-07  9.0889802008389D-07
   139  1.3800000000000D+00  0.0000000000000D+00  0.0000000000000D+00
   140  1.3900000000000D+00  0.0000000000000D+00  0.0000000000000D+00
   141  1.4000000000000D+00  0.0000000000000D+00  0.0000000000000D+00
   142  1.4100000000000D+00  0.0000000000000D+00  0.0000000000000D+00
   143  1.4200000000000D+00  0.0000000000000D+00  0.0000000000000D+00
   144  1.4300000000000D+00  0.0000000000000D+00  0.0000000000000D+00
   145  1.4400000000000D+00  0.0000000000000D+00  0.0000000000000D+00
   146  1.4500000000000D+00  0.0000000000000D+00  0.0000000000000D+00
   147  1.4600000000000D+00  0.0000000000000D+00  0.0000000000000D+00
   148  1.4700000000000D+00  0.0000000000000D+00  0.0000000000000D+00
   149  1.4800000000000D+00  0.0000000000000D+00  0.0000000000000D+00
   150  1.4900000000000D+00  0.0000000000000D+00  0.0000000000000D+00
   151  1.5000000000000D+00  0.0000000000000D+00  0.0000000000000D+00
   152  1.5100000000000D+00  0.0000000000000D+00  0.0000000000000D+00
   153  1.5200000000000D+00  0.0000000000000D+00  0.0000000000000D+00
   154  1.5300000000000D+00  0.0000000000000D+00  0.0000000000000D+00
   155  1.5400000000000D+00  0.0000000000000D+00  0.0000000000000D+00
   156  1.5500000000000D+00  0.0000000000000D+00  0.0000000000000D+00
   157  1.5600000000000D+00  0.0000000000000D+00  0.0000000000000D+00
   158  1.5700000000000D+00  0.0000000000000D+00  0.0000000000000D+00
   159  1.5800000000000D+00  0.0000000000000D+00  0.0000000000000D+00
   160  1.5900000000000D+00  0.0000000000000D+00  0.0000000000000D+00
   161  1.6000000000000D+00  0.0000000000000D+00  0.0000000000000D+00
   162  1.6100000000000D+00  0.0000000000000D+00  0.0000000000000D+00
   163  1.6200000000000D+00  0.0000000000000D+00  0.0000000000000D+00
   164  1.6300000000000D+00  0.0000000000000D+00  0.0000000000000D+00
   165  1.6400000000000D+00  0.0000000000000D+00  0.0000000000000D+00
   166  1.6500000000000D+00  0.0000000000000D+00  0.0000000000000D+00
   167  1.6600000000000D+00  0.0000000000000D+00  0.0000000000000D+00
   168  1.6700000000000D+00  0.0000000000000D+00  0.0000000000000D+00
   169  1.6800000000000D+00  0.0000000000000D+00  0.0000000000000D+00
   170  1.6900000000000D+00  0.0000000000000D+00  0.0000000000000D+00
   171  1.7000000000000D+00  0.0000000000000D+00  0.0000000000000D+00
   172  1.7100000000000D+00  0.0000000000000D+00  0.0000000000000D+00
   173  1.7200000000000D+00  0.0000000000000D+00  0.0000000000000D+00
   174  1.7300000000000D+00  0.0000000000000D+00  0.0000000000000D+00
   175  1.7400000000000D+00  0.0000000000000D+00  0.0000000000000D+00
   176  1.7500000000000D+00  0.0000000000000D+00  0.0000000000000D+00
   177  1.7600000000000D+00  0.0000000000000D+00  0.0000000000000D+00
   178  1.7700000000000D+00  0.0000000000000D+00  0.0000000000000D+00
   179  1.7800000000000D+00  0.0000000000000D+00  0.0000000000000D+00
   180  1.7900000000000D+00  0.0000000000000D+00  0.0000000000000D+00
   181  1.8000000000000D+00  0.0000000000000D+00  0.0000000000000D+00
   182  1.8100000000000D+00  0.0000000000000D+00  0.0000000000000D+00
   183  1.8200000000000D+00  0.0000000000000D+00  0.0000000000000D+00
   184  1.8300000000000D+00  0.0000000000000D+00  0.0000000000000D+00
   185  1.8400000000000D+00  0.0000000000000D+00  0.0000000000000D+00
   186  1.8500000000000D+00  0.0000000000000D+00  0.0000000000000D+00
   187  1.8600000000000D+00  0.0000000000000D+00  0.0000000000000D+00
   188  1.8700000000000D+00  0.0000000000000D+00  0.0000000000000D+00
   189  1.8800000000000D+00  0.0000000000000D+00  0.0000000000000D+00
   190  1.8900000000000D+00  0.0000000000000D+00  0.0000000000000D+00
   191  1.9000000000000D+00  0.0000000000000D+00  0.0000000000000D+00
   192  1.9100000000000D+00  0.0000000000000D+00  0.0000000000000D+00
   193  1.9200000000000D+00  0.0000000000000D+00  0.0000000000000D+00
   194  1.9300000000000D+00  0.0000000000000D+00  0.0000000000000D+00
   195  1.9400000000000D+00  0.0000000000000D+00  0.0000000000000D+00
   196  1.9500000000000D+00  0.0000000000000D+00  0.0000000000000D+00
   197  1.9600000000000D+00  0.0000000000000D+00  0.0000000000000D+00
   198  1.9700000000000D+00  0.0000000000000D+00  0.0000000000000D+00
   199  1.9800000000000D+00  0.0000000000000D+00  0.0000000000000D+00
   200  1.9900000000000D+00  0.0000000000000D+00  0.0000000000000D+00
   201  2.0000000000000D+00  0.0000000000000D+00  0.0000000000000D+00
   202  2.0100000000000D+00  0.0000000000000D+00  0.0000000000000D+00
   203  2.0200000000000D+00  0.0000000000000D+00  0.0000000000000D+00
   204  2.0300000000000D+00  0.0000000000000D+00  0.0000000000000D+00
   205  2.0400000000000D+00  0.0000000000000D+00  0.0000000000000D+00
   206  2.0500000000000D+00  0.0000000000000D+00  0.0000000000000D+00
   207  2.0600000000000D+00  0.0000000000000D+00  0.0000000000000D+00
   208  2.0700000000000D+00  0.0000000000000D+00  0.0000000000000D+00
   209  2.0800000000000D+00  0.0000000000000D+00  0.0000000000000D+00
   210  2.0900000000000D+00  0.0000000000000D+00  0.0000000000000D+00
   211  2.1000000000000D+00  0.0000000000000D+00  0.0000000000000D+00
   212  2.1100000000000D+00  0.0000000000000D+00  0.0000000000000D+00
   213  2.1200000000000D+00  0.0000000000000D+00  0.0000000000000D+00
   214  2.1300000000000D+00  0.0000000000000D+00  0.0000000000000D+00
   215  2.1400000000000D+00  0.0000000000000D+00  0.0000000000000D+00
   216  2.1500000000000D+00  0.0000000000000D+00  0.0000000000000D+00
   217  2.1600000000000D+00  0.0000000000000D+00  0.0000000000000D+00
   218  2.1700000000000D+00  0.0000000000000D+00  0.0000000000000D+00
   219  2.1800000000000D+00  0.0000000000000D+00  0.0000000000000D+00
   220  2.1900000000000D+00  0.0000000000000D+00  0.0000000000000D+00
   221  2.2000000000000D+00  0.0000000000000D+00  0.0000000000000D+00
   222  2.2100000000000D+00  0.0000000000000D+00  0.0000000000000D+00
   223  2.2200000000000D+00  0.0000000000000D+00  0.0000000000000D+00
   224  2.2300000000000D+00  0.0000000000000D+00  0.0000000000000D+00
   225  2.2400000000000D+00  0.0000000000000D+00  0.0000000000000D+00
   226  2.2500000000000D+00  0.0000000000000D+00  0.0000000000000D+00
   227  2.2600000000000D+00  0.0000000000000D+00  0.0000000000000D+00
   228  2.2700000000000D+00  0.0000000000000D+00  0.0000000000000D+00
   229  2.2800000000000D+00  0.0000000000000D+00  0.0000000000000D+00
   230  2.2900000000000D+00  0.0000000000000D+00  0.0000000000000D+00
   231  2.3000000000000D+00  0.0000000000000D+00  0.0000000000000D+00
   232  2.3100000000000D+00  0.0000000000000D+00  0.0000000000000D+00
   233  2.3200000000000D+00  0.0000000000000D+00  0.0000000000000D+00
   234  2.3300000000000D+00  0.0000000000000D+00  0.0000000000000D+00
   235  2.3400000000000D+00  0.0000000000000D+00  0.0000000000000D+00
   236  2.3500000000000D+00  0.0000000000000D+00  0.0000000000000D+00
   237  2.3600000000000D+00  0.0000000000000D+00  0.0000000000000D+00
   238  2.3700000000000D+00  0.0000000000000D+00  0.0000000000000D+00
   239  2.3800000000000D+00  0.0000000000000D+00  0.0000000000000D+00
   240  2.3900000000000D+00  0.0000000000000D+00  0.0000000000000D+00
   241  2.4000000000000D+00  0.0000000000000D+00  0.0000000000000D+00
   242  2.4100000000000D+00  0.0000000000000D+00  0.0000000000000D+00
   243  2.4200000000000D+00  0.0000000000000D+00  0.0000000000000D+00
   244  2.4300000000000D+00  0.0000000000000D+00  0.0000000000000D+00
   245  2.4400000000000D+00  0.0000000000000D+00  0.0000000000000D+00
   246  2.4500000000000D+00  0.0000000000000D+00  0.0000000000000D+00
   247  2.4600000000000D+00  0.0000000000000D+00  0.0000000000000D+00
   248  2.4700000000000D+00  0.0000000000000D+00  0.0000000000000D+00
   249  2.4800000000000D+00  0.0000000000000D+00  0.0000000000000D+00
   250  2.4900000000000D+00  0.0000000000000D+00  0.0000000000000D+00
   251  2.5000000000000D+00  0.0000000000000D+00  0.0000000000000D+00
   252  2.5100000000000D+00  0.0000000000000D+00  0.0000000000000D+00
   253  2.5200000000000D+00  0.0000000000000D+00  0.0000000000000D+00
   254  2.5300000000000D+00  0.0000000000000D+00  0.0000000000000D+00
   255  2.5400000000000D+00  0.0000000000000D+00  0.0000000000000D+00
   256  2.5500000000000D+00  0.0000000000000D+00  0.0000000000000D+00
   257  2.5600000000000D+00  0.0000000000000D+00  0.0000000000000D+00
   258  2.5700000000000D+00  0.0000000000000D+00  0.0000000000000D+00
   259  2.5800000000000D+00  0.0000000000000D+00  0.0000000000000D+00
   260  2.5900000000000D+00  0.0000000000000D+00  0.0000000000000D+00
   261  2.6000000000000D+00  0.0000000000000D+00  0.0000000000000D+00
   262  2.6100000000000D+00  0.0000000000000D+00  0.0000000000000D+00
   263  2.6200000000000D+00  0.0000000000000D+00  0.0000000000000D+00
   264  2.6300000000000D+00  0.0000000000000D+00  0.0000000000000D+00
   265  2.6400000000000D+00  0.0000000000000D+00  0.0000000000000D+00
   266  2.6500000000000D+00  0.0000000000000D+00  0.0000000000000D+00
   267  2.6600000000000D+00  0.0000000000000D+00  0.0000000000000D+00
   268  2.6700000000000D+00  0.0000000000000D+00  0.0000000000000D+00
   269  2.6800000000000D+00  0.0000000000000D+00  0.0000000000000D+00
   270  2.6900000000000D+00  0.0000000000000D+00  0.0000000000000D+00
   271  2.7000000000000D+00  0.0000000000000D+00  0.0000000000000D+00
   272  2.7100000000000D+00  0.0000000000000D+00  0.0000000000000D+00
   273  2.7200000000000D+00  0.0000000000000D+00  0.0000000000000D+00
   274  2.7300000000000D+00  0.0000000000000D+00  0.0000000000000D+00
   275  2.7400000000000D+00  0.0000000000000D+00  0.0000000000000D+00
   276  2.7500000000000D+00  0.0000000000000D+00  0.0000000000000D+00
   277  2.7600000000000D+00  0.0000000000000D+00  0.0000000000000D+00
   278  2.7700000000000D+00  0.0000000000000D+00  0.0000000000000D+00
   279  2.7800000000000D+00  0.0000000000000D+00  0.0000000000000D+00
   280  2.7900000000000D+00  0.0000000000000D+00  0.0000000000000D+00
   281  2.8000000000000D+00  0.0000000000000D+00  0.0000000000000D+00
   282  2.8100000000000D+00  0.0000000000000D+00  0.0000000000000D+00
   283  2.8200000000000D+00  0.0000000000000D+00  0.0000000000000D+00
   284  2.8300000000000D+00  0.0000000000000D+00  0.0000000000000D+00
   285  2.8400000000000D+00  0.0000000000000D+00  0.0000000000000D+00
   286  2.8500000000000D+00  0.0000000000000D+00  0.0000000000000D+00
   287  2.8600000000000D+00  0.0000000000000D+00  0.0000000000000D+00
   288  2.8700000000000D+00  0.0000000000000D+00  0.0000000000000D+00
   289  2.8800000000000D+00  0.0000000000000D+00  0.0000000000000D+00
   290  2.8900000000000D+00  0.0000000000000D+00  0.0000000000000D+00
   291  2.9000000000000D+00  0.0000000000000D+00  0.0000000000000D+00
   292  2.9100000000000D+00  0.0000000000000D+00  0.0000000000000D+00
   293  2.9200000000000D+00  0.0000000000000D+00  0.0000000000000D+00
   294  2.9300000000000D+00  0.0000000000000D+00  0.0000000000000D+00
   295  2.9400000000000D+00  0.0000000000000D+00  0.0000000000000D+00
   296  2.9500000000000D+00  0.0000000000000D+00  0.0000000000000D+00
   297  2.9600000000000D+00  0.0000000000000D+00  0.0000000000000D+00
   298  2.9700000000000D+00  0.0000000000000D+00  0.0000000000000D+00
   299  2.9800000000000D+00  0.0000000000000D+00  0.0000000000000D+00
   300  2.9900000000000D+00  0.0000000000000D+00  0.0000000000000D+00
   301  3.0000000000000D+00  0.0000000000000D+00  0.0000000000000D+00
   302  3.0100000000000D+00  0.0000000000000D+00  0.0000000000000D+00
   303  3.0200000000000D+00  0.0000000000000D+00  0.0000000000000D+00
   304  3.0300000000000D+00  0.0000000000000D+00  0.0000000000000D+00
   305  3.0400000000000D+00  0.0000000000000D+00  0.0000000000000D+00
   306  3.0500000000000D+00  0.0000000000000D+00  0.0000000000000D+00
   307  3.0600000000000D+00  0.0000000000000D+00  0.0000000000000D+00
   308  3.0700000000000D+00  0.0000000000000D+00  0.0000000000000D+00
   309  3.0800000000000D+00  0.0000000000000D+00  0.0000000000000D+00
   310  3.0900000000000D+00  0.0000000000000D+00  0.0000000000000D+00
   311  3.1000000000000D+00  0.0000000000000D+00  0.0000000000000D+00
   312  3.1100000000000D+00  0.0000000000000D+00  0.0000000000000D+00
   313  3.1200000000000D+00  0.0000000000000D+00  0.0000000000000D+00
   314  3.1300000000000D+00  0.0000000000000D+00  0.0000000000000D+00
   315  3.1400000000000D+00  0.0000000000000D+00  0.0000000000000D+00
   316  3.1500000000000D+00  0.0000000000000D+00  0.0000000000000D+00
   317  3.1600000000000D+00  0.0000000000000D+00  0.0000000000000D+00
   318  3.1700000000000D+00  0.0000000000000D+00  0.0000000000000D+00
   319  3.1800000000000D+00  0.0000000000000D+00  0.0000000000000D+00
   320  3.1900000000000D+00  0.0000000000000D+00  0.0000000000000D+00
   321  3.2000000000000D+00  0.0000000000000D+00  0.0000000000000D+00
   322  3.2100000000000D+00  0.0000000000000D+00  0.0000000000000D+00
   323  3.2200000000000D+00  0.0000000000000D+00  0.0000000000000D+00
   324  3.2300000000000D+00  0.0000000000000D+00  0.0000000000000D+00
   325  3.2400000000000D+00  0.0000000000000D+00  0.0000000000000D+00
   326  3.2500000000000D+00  0.0000000000000D+00  0.0000000000000D+00
   327  3.2600000000000D+00  0.0000000000000D+00  0.0000000000000D+00
   328  3.2700000000000D+00  0.0000000000000D+00  0.0000000000000D+00
   329  3.2800000000000D+00  0.0000000000000D+00  0.0000000000000D+00
   330  3.2900000000000D+00  0.0000000000000D+00  0.0000000000000D+00
   331  3.3000000000000D+00  0.0000000000000D+00  0.0000000000000D+00
   332  3.3100000000000D+00  0.0000000000000D+00  0.0000000000000D+00
   333  3.3200000000000D+00  0.0000000000000D+00  0.0000000000000D+00
   334  3.3300000000000D+00  0.0000000000000D+00  0.0000000000000D+00
   335  3.3400000000000D+00  0.0000000000000D+00  0.0000000000000D+00
   336  3.3500000000000D+00  0.0000000000000D+00  0.0000000000000D+00
   337  3.3600000000000D+00  0.0000000000000D+00  0.0000000000000D+00
   338  3.3700000000000D+00  0.0000000000000D+00  0.0000000000000D+00
   339  3.3800000000000D+00  0.0000000000000D+00  0.0000000000000D+00
   340  3.3900000000000D+00  0.0000000000000D+00  0.0000000000000D+00
   341  3.4000000000000D+00  0.0000000000000D+00  0.0000000000000D+00
   342  3.4100000000000D+00  0.0000000000000D+00  0.0000000000000D+00
   343  3.4200000000000D+00  0.0000000000000D+00  0.0000000000000D+00
   344  3.4300000000000D+00  0.0000000000000D+00  0.0000000000000D+00
   345  3.4400000000000D+00  0.0000000000000D+00  0.0000000000000D+00
   346  3.4500000000000D+00  0.0000000000000D+00  0.0000000000000D+00
   347  3.4600000000000D+00  0.0000000000000D+00  0.0000000000000D+00
   348  3.4700000000000D+00  0.0000000000000D+00  0.0000000000000D+00
   349  3.4800000000000D+00  0.0000000000000D+00  0.0000000000000D+00
   350  3.4900000000000D+00  0.0000000000000D+00  0.0000000000000D+00
   351  3.5000000000000D+00  0.0000000000000D+00  0.0000000000000D+00
   352  3.5100000000000D+00  0.0000000000000D+00  0.0000000000000D+00
   353  3.5200000000000D+00  0.0000000000000D+00  0.0000000000000D+00
   354  3.5300000000000D+00  0.0000000000000D+00  0.0000000000000D+00
   355  3.5400000000000D+00  0.0000000000000D+00  0.0000000000000D+00
   356  3.5500000000000D+00  0.0000000000000D+00  0.0000000000000D+00
   357  3.5600000000000D+00  0.0000000000000D+00  0.0000000000000D+00
   358  3.5700000000000D+00  0.0000000000000D+00  0.0000000000000D+00
   359  3.5800000000000D+00  0.0000000000000D+00  0.0000000000000D+00
   360  3.5900000000000D+00  0.0000000000000D+00  0.0000000000000D+00
   361  3.6000000000000D+00  0.0000000000000D+00  0.0000000000000D+00
   362  3.6100000000000D+00  0.0000000000000D+00  0.0000000000000D+00
   363  3.6200000000000D+00  0.0000000000000D+00  0.0000000000000D+00
   364  3.6300000000000D+00  0.0000000000000D+00  0.0000000000000D+00
   365  3.6400000000000D+00  0.0000000000000D+00  0.0000000000000D+00
   366  3.6500000000000D+00  0.0000000000000D+00  0.0000000000000D+00
   367  3.6600000000000D+00  0.0000000000000D+00  0.0000000000000D+00
   368  3.6700000000000D+00  0.0000000000000D+00  0.0000000000000D+00
   369  3.6800000000000D+00  0.0000000000000D+00  0.0000000000000D+00
   370  3.6900000000000D+00  0.0000000000000D+00  0.0000000000000D+00
   371  3.7000000000000D+00  0.0000000000000D+00  0.0000000000000D+00
   372  3.7100000000000D+00  0.0000000000000D+00  0.0000000000000D+00
   373  3.7200000000000D+00  0.0000000000000D+00  0.0000000000000D+00
   374  3.7300000000000D+00  0.0000000000000D+00  0.0000000000000D+00
   375  3.7400000000000D+00  0.0000000000000D+00  0.0000000000000D+00
   376  3.7500000000000D+00  0.0000000000000D+00  0.0000000000000D+00
   377  3.7600000000000D+00  0.0000000000000D+00  0.0000000000000D+00
   378  3.7700000000000D+00  0.0000000000000D+00  0.0000000000000D+00
   379  3.7800000000000D+00  0.0000000000000D+00  0.0000000000000D+00
   380  3.7900000000000D+00  0.0000000000000D+00  0.0000000000000D+00
   381  3.8000000000000D+00  0.0000000000000D+00  0.0000000000000D+00
   382  3.8100000000000D+00  0.0000000000000D+00  0.0000000000000D+00
   383  3.8200000000000D+00  0.0000000000000D+00  0.0000000000000D+00
   384  3.8300000000000D+00  0.0000000000000D+00  0.0000000000000D+00
   385  3.8400000000000D+00  0.0000000000000D+00  0.0000000000000D+00
   386  3.8500000000000D+00  0.0000000000000D+00  0.0000000000000D+00
   387  3.8600000000000D+00  0.0000000000000D+00  0.0000000000000D+00
   388  3.8700000000000D+00  0.0000000000000D+00  0.0000000000000D+00
   389  3.8800000000000D+00  0.0000000000000D+00  0.0000000000000D+00
   390  3.8900000000000D+00  0.0000000000000D+00  0.0000000000000D+00
   391  3.9000000000000D+00  0.0000000000000D+00  0.0000000000000D+00
   392  3.9100000000000D+00  0.0000000000000D+00  0.0000000000000D+00
   393  3.9200000000000D+00  0.0000000000000D+00  0.0000000000000D+00
   394  3.9300000000000D+00  0.0000000000000D+00  0.0000000000000D+00
   395  3.9400000000000D+00  0.0000000000000D+00  0.0000000000000D+00
   396  3.9500000000000D+00  0.0000000000000D+00  0.0000000000000D+00
   397  3.9600000000000D+00  0.0000000000000D+00  0.0000000000000D+00
   398  3.9700000000000D+00  0.0000000000000D+00  0.0000000000000D+00
   399  3.9800000000000D+00  0.0000000000000D+00  0.0000000000000D+00
   400  3.9900000000000D+00  0.0000000000000D+00  0.0000000000000D+00
   401  4.0000000000000D+00  0.0000000000000D+00  0.0000000000000D+00
   402  4.0100000000000D+00  0.0000000000000D+00  0.0000000000000D+00
   403  4.0200000000000D+00  0.0000000000000D+00  0.0000000000000D+00
   404  4.0300000000000D+00  0.0000000000000D+00  0.0000000000000D+00
   405  4.0400000000000D+00  0.0000000000000D+00  0.0000000000000D+00
   406  4.0500000000000D+00  0.0000000000000D+00  0.0000000000000D+00
   407  4.0600000000000D+00  0.0000000000000D+00  0.0000000000000D+00
   408  4.0700000000000D+00  0.0000000000000D+00  0.0000000000000D+00
   409  4.0800000000000D+00  0.0000000000000D+00  0.0000000000000D+00
   410  4.0900000000000D+00  0.0000000000000D+00  0.0000000000000D+00
   411  4.1000000000000D+00  0.0000000000000D+00  0.0000000000000D+00
   412  4.1100000000000D+00  0.0000000000000D+00  0.0000000000000D+00
   413  4.1200000000000D+00  0.0000000000000D+00  0.0000000000000D+00
   414  4.1300000000000D+00  0.0000000000000D+00  0.0000000000000D+00
   415  4.1400000000000D+00  0.0000000000000D+00  0.0000000000000D+00
   416  4.1500000000000D+00  0.0000000000000D+00  0.0000000000000D+00
   417  4.1600000000000D+00  0.0000000000000D+00  0.0000000000000D+00
   418  4.1700000000000D+00  0.0000000000000D+00  0.0000000000000D+00
   419  4.1800000000000D+00  0.0000000000000D+00  0.0000000000000D+00
   420  4.1900000000000D+00  0.0000000000000D+00  0.0000000000000D+00
   421  4.2000000000000D+00  0.0000000000000D+00  0.0000000000000D+00
   422  4.2100000000000D+00  0.0000000000000D+00  0.0000000000000D+00