Gd    ONCVPSP-3.3.0  r_core=   1.81887   1.50284   1.65332   1.71356
     64.0000     18.0000      220408    zatom,zion,pspd
     8       2   3     4   600     0    pspcod,pspxc,lmax,lloc,mmax,r2well
  5.99000000  0.00000000  0.00000000    rchrg fchrg qchrg
     2     2     2     2     0    nproj
     1     1           extension_switch
   0                         8.8725736517467D+00  5.8017651739871D-01
     1  0.0000000000000D+00 -2.8748781133459D-11  2.4214183436122D-10
     2  1.0000000000000D-02  4.3950356810186D-02 -1.9054884593532D-02
     3  2.0000000000000D-02  8.7857156733307D-02 -3.8013714312752D-02
     4  3.0000000000000D-02  1.3167690985205D-01 -5.6781140038931D-02
     5  4.0000000000000D-02  1.7536625962152D-01 -7.5263217508246D-02
     6  5.0000000000000D-02  2.1888204814510D-01 -9.3368093160401D-02
     7  6.0000000000000D-02  2.6218137977844D-01 -1.1100667026527D-01
     8  7.0000000000000D-02  3.0522168253843D-01 -1.2809324903976D-01
     9  8.0000000000000D-02  3.4796076682267D-01 -1.4454613470922D-01
    10  9.0000000000000D-02  3.9035688098028D-01 -1.6028820776667D-01
    11  1.0000000000000D-01  4.3236876331677D-01 -1.7524745103599D-01
    12  1.1000000000000D-01  4.7395569016286D-01 -1.8935742854988D-01
    13  1.2000000000000D-01  5.1507751969016D-01 -2.0255771170468D-01
    14  1.3000000000000D-01  5.5569473121396D-01 -2.1479424865058D-01
    15  1.4000000000000D-01  5.9576845978538D-01 -2.2601967341099D-01
    16  1.5000000000000D-01  6.3526052594003D-01 -2.3619355179495D-01
    17  1.6000000000000D-01  6.7413346053842D-01 -2.4528256176755D-01
    18  1.7000000000000D-01  7.1235052470341D-01 -2.5326060656778D-01
    19  1.8000000000000D-01  7.4987572493112D-01 -2.6010885950843D-01
    20  1.9000000000000D-01  7.8667382352338D-01 -2.6581574005008D-01
    21  2.0000000000000D-01  8.2271034456110D-01 -2.7037682140721D-01
    22  2.1000000000000D-01  8.5795157570791D-01 -2.7379467061147D-01
    23  2.2000000000000D-01  8.9236456620131D-01 -2.7607862261989D-01
    24  2.3000000000000D-01  9.2591712145345D-01 -2.7724449070789D-01
    25  2.4000000000000D-01  9.5857779474506D-01 -2.7731421602218D-01
    26  2.5000000000000D-01  9.9031587655227D-01 -2.7631545978075D-01
    27  2.6000000000000D-01  1.0211013820977D+00 -2.7428114219147D-01
    28  2.7000000000000D-01  1.0509050377616D+00 -2.7124893270907D-01
    29  2.8000000000000D-01  1.0796982670281D+00 -2.6726069675990D-01
    30  2.9000000000000D-01  1.1074531766713D+00 -2.6236190452775D-01
    31  3.0000000000000D-01  1.1341425439084D+00 -2.5660100780683D-01
    32  3.1000000000000D-01  1.1597398052630D+00 -2.5002879128782D-01
    33  3.2000000000000D-01  1.1842190478840D+00 -2.4269770494223D-01
    34  3.3000000000000D-01  1.2075550040634D+00 -2.3466118440810D-01
    35  3.4000000000000D-01  1.2297230496802D+00 -2.2597296645201D-01
    36  3.5000000000000D-01  1.2506992072747D+00 -2.1668640668637D-01
    37  3.6000000000000D-01  1.2704601544232D+00 -2.0685380675444D-01
    38  3.7000000000000D-01  1.2889832380396D+00 -1.9652575815860D-01
    39  3.8000000000000D-01  1.3062464951741D+00 -1.8575050979682D-01
    40  3.9000000000000D-01  1.3222286808208D+00 -1.7457336609171D-01
    41  4.0000000000000D-01  1.3369093031669D+00 -1.6303612234266D-01
    42  4.1000000000000D-01  1.3502686666411D+00 -1.5117654360923D-01
    43  4.2000000000000D-01  1.3622879230252D+00 -1.3902789304313D-01
    44  4.3000000000000D-01  1.3729491307969D+00 -1.2661851513039D-01
    45  4.4000000000000D-01  1.3822353227700D+00 -1.1397147878867D-01
    46  4.5000000000000D-01  1.3901305819856D+00 -1.0110428469020D-01
    47  4.6000000000000D-01  1.3966201256977D+00 -8.8028640554593D-02
    48  4.7000000000000D-01  1.4016903971747D+00 -7.4750307482579D-02
    49  4.8000000000000D-01  1.4053291649226D+00 -6.1269019688267D-02
    50  4.9000000000000D-01  1.4075256288105D+00 -4.7578479239504D-02
    51  5.0000000000000D-01  1.4082705324607D+00 -3.3666426641825D-02
    52  5.1000000000000D-01  1.4075562811457D+00 -1.9514787308474D-02
    53  5.2000000000000D-01  1.4053770643154D+00 -5.0998931535201D-03
    54  5.3000000000000D-01  1.4017289817709D+00  9.6072222607187D-03
    55  5.4000000000000D-01  1.3966101723895D+00  2.4640457393377D-02
    56  5.5000000000000D-01  1.3900209442115D+00  4.0038208369577D-02
    57  5.6000000000000D-01  1.3819639046071D+00  5.5842870520912D-02
    58  5.7000000000000D-01  1.3724440891624D+00  7.2100280475857D-02
    59  5.8000000000000D-01  1.3614690878572D+00  8.8859104143854D-02
    60  5.9000000000000D-01  1.3490491670510D+00  1.0617017658058D-01
    61  6.0000000000000D-01  1.3351973857534D+00  1.2408580030694D-01
    62  6.1000000000000D-01  1.3199297046294D+00  1.4265900917499D-01
    63  6.2000000000000D-01  1.3032650861816D+00  1.6194280532541D-01
    64  6.3000000000000D-01  1.2852255845583D+00  1.8198937715086D-01
    65  6.4000000000000D-01  1.2658364234624D+00  2.0284930647017D-01
    66  6.5000000000000D-01  1.2451260606799D+00  2.2457077331623D-01
    67  6.6000000000000D-01  1.2231262378092D+00  2.4719876684993D-01
    68  6.7000000000000D-01  1.1998720138519D+00  2.7077431092378D-01
    69  6.8000000000000D-01  1.1754017814286D+00  2.9533371273294D-01
    70  6.9000000000000D-01  1.1497572644972D+00  3.2090784281092D-01
    71  7.0000000000000D-01  1.1229834965880D+00  3.4752145434283D-01
    72  7.1000000000000D-01  1.0951287787241D+00  3.7519254939459D-01
    73  7.2000000000000D-01  1.0662446163599D+00  4.0393179918256D-01
    74  7.3000000000000D-01  1.0363856348565D+00  4.3374202495155D-01
    75  7.4000000000000D-01  1.0056094732064D+00  4.6461774538034D-01
    76  7.5000000000000D-01  9.7397665592876D-01  4.9654479571291D-01
    77  7.6000000000000D-01  9.4155044327193D-01  5.2950002302017D-01
    78  7.7000000000000D-01  9.0839666008388D-01  5.6345106114151D-01
    79  7.8000000000000D-01  8.7458350394132D-01  5.9835618794916D-01
    80  7.9000000000000D-01  8.4018133335822D-01  6.3416426663044D-01
    81  8.0000000000000D-01  8.0526243712657D-01  6.7081477170505D-01
    82  8.1000000000000D-01  7.6990078607002D-01  7.0823789950305D-01
    83  8.2000000000000D-01  7.3417176871377D-01  7.4635476182739D-01
    84  8.3000000000000D-01  6.9815191258761D-01  7.8507766054005D-01
    85  8.4000000000000D-01  6.6191859308054D-01  8.2431043984535D-01
    86  8.5000000000000D-01  6.2554973195291D-01  8.6394891211765D-01
    87  8.6000000000000D-01  5.8912348778095D-01  9.0388135224696D-01
    88  8.7000000000000D-01  5.5271794075733D-01  9.4398905466717D-01
    89  8.8000000000000D-01  5.1641077439670D-01  9.8414694650369D-01
    90  8.9000000000000D-01  4.8027895679405D-01  1.0242242496409D+00
    91  9.0000000000000D-01  4.4439842415492D-01  1.0640851839791D+00
    92  9.1000000000000D-01  4.0884376935582D-01  1.1035897037351D+00
    93  9.2000000000000D-01  3.7368793830075D-01  1.1425942583527D+00
    94  9.3000000000000D-01  3.3900193681295D-01  1.1809525694351D+00
    95  9.4000000000000D-01  3.0485455073805D-01  1.2185164150975D+00
    96  9.5000000000000D-01  2.7131208183576D-01  1.2551364132749D+00
    97  9.6000000000000D-01  2.3843810190113D-01  1.2906627958063D+00
    98  9.7000000000000D-01  2.0629322738325D-01  1.3249461655514D+00
    99  9.8000000000000D-01  1.7493491655942D-01  1.3578382293882D+00
   100  9.9000000000000D-01  1.4441729107708D-01  1.3891925006730D+00
   101  1.0000000000000D+00  1.1479098339794D-01  1.4188649656193D+00
   102  1.0100000000000D+00  8.6103011356172D-02  1.4467147090990D+00
   103  1.0200000000000D+00  5.8396680723841D-02  1.4726044964248D+00
   104  1.0300000000000D+00  3.1711516279607D-02  1.4964013090135D+00
   105  1.0400000000000D+00  6.0832215029591D-03  1.5179768331096D+00
   106  1.0500000000000D+00 -1.8456333400395D-02  1.5372079021778D+00
   107  1.0600000000000D+00 -4.1879095865872D-02  1.5539768950568D+00
   108  1.0700000000000D+00 -6.4160788889537D-02  1.5681720934638D+00
   109  1.0800000000000D+00 -8.5280844076358D-02  1.5796880038716D+00
   110  1.0900000000000D+00 -1.0522231187250D-01  1.5884256504016D+00
   111  1.1000000000000D+00 -1.2397175142707D-01  1.5942928466779D+00
   112  1.1100000000000D+00 -1.4151910297356D-01  1.5972044560244D+00
   113  1.1200000000000D+00 -1.5785754596204D-01  1.5970826504631D+00
   114  1.1300000000000D+00 -1.7298334658059D-01  1.5938571801919D+00
   115  1.1400000000000D+00 -1.8689569860282D-01  1.5874656660222D+00
   116  1.1500000000000D+00 -1.9959656177207D-01  1.5778539278589D+00
   117  1.1600000000000D+00 -2.1109050212356D-01  1.5649763626474D+00
   118  1.1700000000000D+00 -2.2138453884179D-01  1.5487963853790D+00
   119  1.1800000000000D+00 -2.3048800231042D-01  1.5292869463704D+00
   120  1.1900000000000D+00 -2.3841240794761D-01  1.5064311369554D+00
   121  1.2000000000000D+00 -2.4517135043941D-01  1.4802228954218D+00
   122  1.2100000000000D+00 -2.5078042270258D-01  1.4506678225927D+00
   123  1.2200000000000D+00 -2.5525716355221D-01  1.4177841142299D+00
   124  1.2300000000000D+00 -2.5862103772349D-01  1.3816036152573D+00
   125  1.2400000000000D+00 -2.6089345138559D-01  1.3421729975614D+00
   126  1.2500000000000D+00 -2.6209780531806D-01  1.2995550576361D+00
   127  1.2600000000000D+00 -2.6225958722449D-01  1.2538301264928D+00
   128  1.2700000000000D+00 -2.6140650405512D-01  1.2050975807431D+00
   129  1.2800000000000D+00 -2.5956865314829D-01  1.1534774327021D+00
   130  1.2900000000000D+00 -2.5677873015142D-01  1.0991119729476D+00
   131  1.3000000000000D+00 -2.5307227090153D-01  1.0421674344397D+00
   132  1.3100000000000D+00 -2.4848792077432D-01  9.8283562823434D-01
   133  1.3200000000000D+00 -2.4306772467509D-01  9.2133549916639D-01
   134  1.3300000000000D+00 -2.3685742911361D-01  8.5791454074903D-01
   135  1.3400000000000D+00 -2.2990678223520D-01  7.9284998012705D-01
   136  1.3500000000000D+00 -2.2226981934879D-01  7.2644965243012D-01
   137  1.3600000000000D+00 -2.1400511639211D-01  6.5905245775548D-01
   138  1.3700000000000D+00 -2.0517598705920D-01  5.9102826008399D-01
   139  1.3800000000000D+00 -1.9585060573540D-01  5.2277711986304D-01
   140  1.3900000000000D+00 -1.8610202225418D-01  4.5472767030549D-01
   141  1.4000000000000D+00 -1.7600803809625D-01  3.8733446577153D-01
   142  1.4100000000000D+00 -1.6565091171926D-01  3.2107412076422D-01
   143  1.4200000000000D+00 -1.5511684168881D-01  2.5643996195967D-01
   144  1.4300000000000D+00 -1.4449519338149D-01  1.9393500213118D-01
   145  1.4400000000000D+00 -1.3387740706427D-01  1.3406290346953D-01
   146  1.4500000000000D+00 -1.2335553131721D-01  7.7316628832334D-02
   147  1.4600000000000D+00 -1.1302030252765D-01  2.4164305562725D-02
   148  1.4700000000000D+00 -1.0295875835598D-01 -2.4967555799684D-02
   149  1.4800000000000D+00 -9.3251269657582D-02 -6.9714384691294D-02
   150  1.4900000000000D+00 -8.3968518996168D-02 -1.0979296526859D-01
   151  1.5000000000000D+00 -7.5164193338252D-02 -1.4505156993631D-01
   152  1.5100000000000D+00 -6.6873455813039D-02 -1.7547547263402D-01
   153  1.5200000000000D+00 -5.9115366364725D-02 -2.0116017127750D-01
   154  1.5300000000000D+00 -5.1897184089011D-02 -2.2227583453209D-01
   155  1.5400000000000D+00 -4.5223127066020D-02 -2.3900028197902D-01
   156  1.5500000000000D+00 -3.9092669549476D-02 -2.5153139049197D-01
   157  1.5600000000000D+00 -3.3496738050647D-02 -2.6011526657535D-01
   158  1.5700000000000D+00 -2.8427142054980D-02 -2.6497982040527D-01
   159  1.5800000000000D+00 -2.3882089701673D-02 -2.6629690458420D-01
   160  1.5900000000000D+00 -1.9846447682045D-02 -2.6432106858546D-01
   161  1.6000000000000D+00 -1.6286343570066D-02 -2.5942778889871D-01
   162  1.6100000000000D+00 -1.3171373231720D-02 -2.5195716965008D-01
   163  1.6200000000000D+00 -1.0478076005412D-02 -2.4218996979328D-01
   164  1.6300000000000D+00 -8.1788624170257D-03 -2.3042684460413D-01
   165  1.6400000000000D+00 -6.2422710106115D-03 -2.1698723177257D-01
   166  1.6500000000000D+00 -4.6363152828440D-03 -2.0218618855044D-01
   167  1.6600000000000D+00 -3.3285012191796D-03 -1.8633494394959D-01
   168  1.6700000000000D+00 -2.2859395644607D-03 -1.6974078897442D-01
   169  1.6800000000000D+00 -1.4758779253703D-03 -1.5270397379073D-01
   170  1.6900000000000D+00 -8.6614528351634D-04 -1.3551522464544D-01
   171  1.7000000000000D+00 -4.2556998418077D-04 -1.1845343444950D-01
   172  1.7100000000000D+00 -1.2438526604618D-04 -1.0178342361023D-01
   173  1.7200000000000D+00  6.5385723318327D-05 -8.5753819433653D-02
   174  1.7300000000000D+00  1.6956706425424D-04 -7.0595062681437D-02
   175  1.7400000000000D+00  2.1149410690742D-04 -5.6517566433165D-02
   176  1.7500000000000D+00  2.1170551909759D-04 -4.3710033020371D-02
   177  1.7600000000000D+00  1.8772791036376D-04 -3.2344281963923D-02
   178  1.7700000000000D+00  1.5361061387271D-04 -2.2550573185068D-02
   179  1.7800000000000D+00  1.1927570481413D-04 -1.4406904947297D-02
   180  1.7900000000000D+00  9.2581843276411D-05 -8.0537871667461D-03
   181  1.8000000000000D+00  8.0379314679149D-05 -3.6977116379414D-03
   182  1.8100000000000D+00  7.9355419481379D-05 -1.2677216284977D-03
   183  1.8200000000000D+00  6.8966220430042D-05 -2.1936955280317D-04
   184  1.8300000000000D+00  3.5566836196142D-05  5.9546386123199D-05
   185  1.8400000000000D+00  1.8399230649830D-06  6.8103241079282D-06
   186  1.8500000000000D+00 -7.5637822714938D-06 -3.6858183986871D-05
   187  1.8600000000000D+00 -2.3337299883966D-06 -1.3430764852867D-05
   188  1.8700000000000D+00  1.5423190766042D-06  4.7072678273246D-06
   189  1.8800000000000D+00  1.0227289943925D-06  3.5446081916429D-06
   190  1.8900000000000D+00 -1.3984121698704D-07  5.6714020085538D-07
   191  1.9000000000000D+00 -1.7284063968773D-07  7.0097269761003D-07
   192  1.9100000000000D+00  0.0000000000000D+00  0.0000000000000D+00
   193  1.9200000000000D+00  0.0000000000000D+00  0.0000000000000D+00
   194  1.9300000000000D+00  0.0000000000000D+00  0.0000000000000D+00
   195  1.9400000000000D+00  0.0000000000000D+00  0.0000000000000D+00
   196  1.9500000000000D+00  0.0000000000000D+00  0.0000000000000D+00
   197  1.9600000000000D+00  0.0000000000000D+00  0.0000000000000D+00
   198  1.9700000000000D+00  0.0000000000000D+00  0.0000000000000D+00
   199  1.9800000000000D+00  0.0000000000000D+00  0.0000000000000D+00
   200  1.9900000000000D+00  0.0000000000000D+00  0.0000000000000D+00
   201  2.0000000000000D+00  0.0000000000000D+00  0.0000000000000D+00
   202  2.0100000000000D+00  0.0000000000000D+00  0.0000000000000D+00
   203  2.0200000000000D+00  0.0000000000000D+00  0.0000000000000D+00
   204  2.0300000000000D+00  0.0000000000000D+00  0.0000000000000D+00
   205  2.0400000000000D+00  0.0000000000000D+00  0.0000000000000D+00
   206  2.0500000000000D+00  0.0000000000000D+00  0.0000000000000D+00
   207  2.0600000000000D+00  0.0000000000000D+00  0.0000000000000D+00
   208  2.0700000000000D+00  0.0000000000000D+00  0.0000000000000D+00
   209  2.0800000000000D+00  0.0000000000000D+00  0.0000000000000D+00
   210  2.0900000000000D+00  0.0000000000000D+00  0.0000000000000D+00
   211  2.1000000000000D+00  0.0000000000000D+00  0.0000000000000D+00
   212  2.1100000000000D+00  0.0000000000000D+00  0.0000000000000D+00
   213  2.1200000000000D+00  0.0000000000000D+00  0.0000000000000D+00
   214  2.1300000000000D+00  0.0000000000000D+00  0.0000000000000D+00
   215  2.1400000000000D+00  0.0000000000000D+00  0.0000000000000D+00
   216  2.1500000000000D+00  0.0000000000000D+00  0.0000000000000D+00
   217  2.1600000000000D+00  0.0000000000000D+00  0.0000000000000D+00
   218  2.1700000000000D+00  0.0000000000000D+00  0.0000000000000D+00
   219  2.1800000000000D+00  0.0000000000000D+00  0.0000000000000D+00
   220  2.1900000000000D+00  0.0000000000000D+00  0.0000000000000D+00
   221  2.2000000000000D+00  0.0000000000000D+00  0.0000000000000D+00
   222  2.2100000000000D+00  0.0000000000000D+00  0.0000000000000D+00
   223  2.2200000000000D+00  0.0000000000000D+00  0.0000000000000D+00
   224  2.2300000000000D+00  0.0000000000000D+00  0.0000000000000D+00
   225  2.2400000000000D+00  0.0000000000000D+00  0.0000000000000D+00
   226  2.2500000000000D+00  0.0000000000000D+00  0.0000000000000D+00
   227  2.2600000000000D+00  0.0000000000000D+00  0.0000000000000D+00
   228  2.2700000000000D+00  0.0000000000000D+00  0.0000000000000D+00
   229  2.2800000000000D+00  0.0000000000000D+00  0.0000000000000D+00
   230  2.2900000000000D+00  0.0000000000000D+00  0.0000000000000D+00
   231  2.3000000000000D+00  0.0000000000000D+00  0.0000000000000D+00
   232  2.3100000000000D+00  0.0000000000000D+00  0.0000000000000D+00
   233  2.3200000000000D+00  0.0000000000000D+00  0.0000000000000D+00
   234  2.3300000000000D+00  0.0000000000000D+00  0.0000000000000D+00
   235  2.3400000000000D+00  0.0000000000000D+00  0.0000000000000D+00
   236  2.3500000000000D+00  0.0000000000000D+00  0.0000000000000D+00
   237  2.3600000000000D+00  0.0000000000000D+00  0.0000000000000D+00
   238  2.3700000000000D+00  0.0000000000000D+00  0.0000000000000D+00
   239  2.3800000000000D+00  0.0000000000000D+00  0.0000000000000D+00
   240  2.3900000000000D+00  0.0000000000000D+00  0.0000000000000D+00
   241  2.4000000000000D+00  0.0000000000000D+00  0.0000000000000D+00
   242  2.4100000000000D+00  0.0000000000000D+00  0.0000000000000D+00
   243  2.4200000000000D+00  0.0000000000000D+00  0.0000000000000D+00
   244  2.4300000000000D+00  0.0000000000000D+00  0.0000000000000D+00
   245  2.4400000000000D+00  0.0000000000000D+00  0.0000000000000D+00
   246  2.4500000000000D+00  0.0000000000000D+00  0.0000000000000D+00
   247  2.4600000000000D+00  0.0000000000000D+00  0.0000000000000D+00
   248  2.4700000000000D+00  0.0000000000000D+00  0.0000000000000D+00
   249  2.4800000000000D+00  0.0000000000000D+00  0.0000000000000D+00
   250  2.4900000000000D+00  0.0000000000000D+00  0.0000000000000D+00
   251  2.5000000000000D+00  0.0000000000000D+00  0.0000000000000D+00
   252  2.5100000000000D+00  0.0000000000000D+00  0.0000000000000D+00
   253  2.5200000000000D+00  0.0000000000000D+00  0.0000000000000D+00
   254  2.5300000000000D+00  0.0000000000000D+00  0.0000000000000D+00
   255  2.5400000000000D+00  0.0000000000000D+00  0.0000000000000D+00
   256  2.5500000000000D+00  0.0000000000000D+00  0.0000000000000D+00
   257  2.5600000000000D+00  0.0000000000000D+00  0.0000000000000D+00
   258  2.5700000000000D+00  0.0000000000000D+00  0.0000000000000D+00
   259  2.5800000000000D+00  0.0000000000000D+00  0.0000000000000D+00
   260  2.5900000000000D+00  0.0000000000000D+00  0.0000000000000D+00
   261  2.6000000000000D+00  0.0000000000000D+00  0.0000000000000D+00
   262  2.6100000000000D+00  0.0000000000000D+00  0.0000000000000D+00
   263  2.6200000000000D+00  0.0000000000000D+00  0.0000000000000D+00
   264  2.6300000000000D+00  0.0000000000000D+00  0.0000000000000D+00
   265  2.6400000000000D+00  0.0000000000000D+00  0.0000000000000D+00
   266  2.6500000000000D+00  0.0000000000000D+00  0.0000000000000D+00
   267  2.6600000000000D+00  0.0000000000000D+00  0.0000000000000D+00
   268  2.6700000000000D+00  0.0000000000000D+00  0.0000000000000D+00
   269  2.6800000000000D+00  0.0000000000000D+00  0.0000000000000D+00
   270  2.6900000000000D+00  0.0000000000000D+00  0.0000000000000D+00
   271  2.7000000000000D+00  0.0000000000000D+00  0.0000000000000D+00
   272  2.7100000000000D+00  0.0000000000000D+00  0.0000000000000D+00
   273  2.7200000000000D+00  0.0000000000000D+00  0.0000000000000D+00
   274  2.7300000000000D+00  0.0000000000000D+00  0.0000000000000D+00
   275  2.7400000000000D+00  0.0000000000000D+00  0.0000000000000D+00
   276  2.7500000000000D+00  0.0000000000000D+00  0.0000000000000D+00
   277  2.7600000000000D+00  0.0000000000000D+00  0.0000000000000D+00
   278  2.7700000000000D+00  0.0000000000000D+00  0.0000000000000D+00
   279  2.7800000000000D+00  0.0000000000000D+00  0.0000000000000D+00
   280  2.7900000000000D+00  0.0000000000000D+00  0.0000000000000D+00
   281  2.8000000000000D+00  0.0000000000000D+00  0.0000000000000D+00
   282  2.8100000000000D+00  0.0000000000000D+00  0.0000000000000D+00
   283  2.8200000000000D+00  0.0000000000000D+00  0.0000000000000D+00
   284  2.8300000000000D+00  0.0000000000000D+00  0.0000000000000D+00
   285  2.8400000000000D+00  0.0000000000000D+00  0.0000000000000D+00
   286  2.8500000000000D+00  0.0000000000000D+00  0.0000000000000D+00
   287  2.8600000000000D+00  0.0000000000000D+00  0.0000000000000D+00
   288  2.8700000000000D+00  0.0000000000000D+00  0.0000000000000D+00
   289  2.8800000000000D+00  0.0000000000000D+00  0.0000000000000D+00
   290  2.8900000000000D+00  0.0000000000000D+00  0.0000000000000D+00
   291  2.9000000000000D+00  0.0000000000000D+00  0.0000000000000D+00
   292  2.9100000000000D+00  0.0000000000000D+00  0.0000000000000D+00
   293  2.9200000000000D+00  0.0000000000000D+00  0.0000000000000D+00
   294  2.9300000000000D+00  0.0000000000000D+00  0.0000000000000D+00
   295  2.9400000000000D+00  0.0000000000000D+00  0.0000000000000D+00
   296  2.9500000000000D+00  0.0000000000000D+00  0.0000000000000D+00
   297  2.9600000000000D+00  0.0000000000000D+00  0.0000000000000D+00
   298  2.9700000000000D+00  0.0000000000000D+00  0.0000000000000D+00
   299  2.9800000000000D+00  0.0000000000000D+00  0.0000000000000D+00
   300  2.9900000000000D+00  0.0000000000000D+00  0.0000000000000D+00
   301  3.0000000000000D+00  0.0000000000000D+00  0.0000000000000D+00
   302  3.0100000000000D+00  0.0000000000000D+00  0.0000000000000D+00
   303  3.0200000000000D+00  0.0000000000000D+00  0.0000000000000D+00
   304  3.0300000000000D+00  0.0000000000000D+00  0.0000000000000D+00
   305  3.0400000000000D+00  0.0000000000000D+00  0.0000000000000D+00
   306  3.0500000000000D+00  0.0000000000000D+00  0.0000000000000D+00
   307  3.0600000000000D+00  0.0000000000000D+00  0.0000000000000D+00
   308  3.0700000000000D+00  0.0000000000000D+00  0.0000000000000D+00
   309  3.0800000000000D+00  0.0000000000000D+00  0.0000000000000D+00
   310  3.0900000000000D+00  0.0000000000000D+00  0.0000000000000D+00
   311  3.1000000000000D+00  0.0000000000000D+00  0.0000000000000D+00
   312  3.1100000000000D+00  0.0000000000000D+00  0.0000000000000D+00
   313  3.1200000000000D+00  0.0000000000000D+00  0.0000000000000D+00
   314  3.1300000000000D+00  0.0000000000000D+00  0.0000000000000D+00
   315  3.1400000000000D+00  0.0000000000000D+00  0.0000000000000D+00
   316  3.1500000000000D+00  0.0000000000000D+00  0.0000000000000D+00
   317  3.1600000000000D+00  0.0000000000000D+00  0.0000000000000D+00
   318  3.1700000000000D+00  0.0000000000000D+00  0.0000000000000D+00
   319  3.1800000000000D+00  0.0000000000000D+00  0.0000000000000D+00
   320  3.1900000000000D+00  0.0000000000000D+00  0.0000000000000D+00
   321  3.2000000000000D+00  0.0000000000000D+00  0.0000000000000D+00
   322  3.2100000000000D+00  0.0000000000000D+00  0.0000000000000D+00
   323  3.2200000000000D+00  0.0000000000000D+00  0.0000000000000D+00
   324  3.2300000000000D+00  0.0000000000000D+00  0.0000000000000D+00
   325  3.2400000000000D+00  0.0000000000000D+00  0.0000000000000D+00
   326  3.2500000000000D+00  0.0000000000000D+00  0.0000000000000D+00
   327  3.2600000000000D+00  0.0000000000000D+00  0.0000000000000D+00
   328  3.2700000000000D+00  0.0000000000000D+00  0.0000000000000D+00
   329  3.2800000000000D+00  0.0000000000000D+00  0.0000000000000D+00
   330  3.2900000000000D+00  0.0000000000000D+00  0.0000000000000D+00
   331  3.3000000000000D+00  0.0000000000000D+00  0.0000000000000D+00
   332  3.3100000000000D+00  0.0000000000000D+00  0.0000000000000D+00
   333  3.3200000000000D+00  0.0000000000000D+00  0.0000000000000D+00
   334  3.3300000000000D+00  0.0000000000000D+00  0.0000000000000D+00
   335  3.3400000000000D+00  0.0000000000000D+00  0.0000000000000D+00
   336  3.3500000000000D+00  0.0000000000000D+00  0.0000000000000D+00
   337  3.3600000000000D+00  0.0000000000000D+00  0.0000000000000D+00
   338  3.3700000000000D+00  0.0000000000000D+00  0.0000000000000D+00
   339  3.3800000000000D+00  0.0000000000000D+00  0.0000000000000D+00
   340  3.3900000000000D+00  0.0000000000000D+00  0.0000000000000D+00
   341  3.4000000000000D+00  0.0000000000000D+00  0.0000000000000D+00
   342  3.4100000000000D+00  0.0000000000000D+00  0.0000000000000D+00
   343  3.4200000000000D+00  0.0000000000000D+00  0.0000000000000D+00
   344  3.4300000000000D+00  0.0000000000000D+00  0.0000000000000D+00
   345  3.4400000000000D+00  0.0000000000000D+00  0.0000000000000D+00
   346  3.4500000000000D+00  0.0000000000000D+00  0.0000000000000D+00
   347  3.4600000000000D+00  0.0000000000000D+00  0.0000000000000D+00
   348  3.4700000000000D+00  0.0000000000000D+00  0.0000000000000D+00
   349  3.4800000000000D+00  0.0000000000000D+00  0.0000000000000D+00
   350  3.4900000000000D+00  0.0000000000000D+00  0.0000000000000D+00
   351  3.5000000000000D+00  0.0000000000000D+00  0.0000000000000D+00
   352  3.5100000000000D+00  0.0000000000000D+00  0.0000000000000D+00
   353  3.5200000000000D+00  0.0000000000000D+00  0.0000000000000D+00
   354  3.5300000000000D+00  0.0000000000000D+00  0.0000000000000D+00
   355  3.5400000000000D+00  0.0000000000000D+00  0.0000000000000D+00
   356  3.5500000000000D+00  0.0000000000000D+00  0.0000000000000D+00
   357  3.5600000000000D+00  0.0000000000000D+00  0.0000000000000D+00
   358  3.5700000000000D+00  0.0000000000000D+00  0.0000000000000D+00
   359  3.5800000000000D+00  0.0000000000000D+00  0.0000000000000D+00
   360  3.5900000000000D+00  0.0000000000000D+00  0.0000000000000D+00
   361  3.6000000000000D+00  0.0000000000000D+00  0.0000000000000D+00
   362  3.6100000000000D+00  0.0000000000000D+00  0.0000000000000D+00
   363  3.6200000000000D+00  0.0000000000000D+00  0.0000000000000D+00
   364  3.6300000000000D+00  0.0000000000000D+00  0.0000000000000D+00
   365  3.6400000000000D+00  0.0000000000000D+00  0.0000000000000D+00
   366  3.6500000000000D+00  0.0000000000000D+00  0.0000000000000D+00
   367  3.6600000000000D+00  0.0000000000000D+00  0.0000000000000D+00
   368  3.6700000000000D+00  0.0000000000000D+00  0.0000000000000D+00
   369  3.6800000000000D+00  0.0000000000000D+00  0.0000000000000D+00
   370  3.6900000000000D+00  0.0000000000000D+00  0.0000000000000D+00
   371  3.7000000000000D+00  0.0000000000000D+00  0.0000000000000D+00
   372  3.7100000000000D+00  0.0000000000000D+00  0.0000000000000D+00
   373  3.7200000000000D+00  0.0000000000000D+00  0.0000000000000D+00
   374  3.7300000000000D+00  0.0000000000000D+00  0.0000000000000D+00
   375  3.7400000000000D+00  0.0000000000000D+00  0.0000000000000D+00
   376  3.7500000000000D+00  0.0000000000000D+00  0.0000000000000D+00
   377  3.7600000000000D+00  0.0000000000000D+00  0.0000000000000D+00
   378  3.7700000000000D+00  0.0000000000000D+00  0.0000000000000D+00
   379  3.7800000000000D+00  0.0000000000000D+00  0.0000000000000D+00
   380  3.7900000000000D+00  0.0000000000000D+00  0.0000000000000D+00
   381  3.8000000000000D+00  0.0000000000000D+00  0.0000000000000D+00
   382  3.8100000000000D+00  0.0000000000000D+00  0.0000000000000D+00
   383  3.8200000000000D+00  0.0000000000000D+00  0.0000000000000D+00
   384  3.8300000000000D+00  0.0000000000000D+00  0.0000000000000D+00
   385  3.8400000000000D+00  0.0000000000000D+00  0.0000000000000D+00
   386  3.8500000000000D+00  0.0000000000000D+00  0.0000000000000D+00
   387  3.8600000000000D+00  0.0000000000000D+00  0.0000000000000D+00
   388  3.8700000000000D+00  0.0000000000000D+00  0.0000000000000D+00
   389  3.8800000000000D+00  0.0000000000000D+00  0.0000000000000D+00
   390  3.8900000000000D+00  0.0000000000000D+00  0.0000000000000D+00
   391  3.9000000000000D+00  0.0000000000000D+00  0.0000000000000D+00
   392  3.9100000000000D+00  0.0000000000000D+00  0.0000000000000D+00
   393  3.9200000000000D+00  0.0000000000000D+00  0.0000000000000D+00
   394  3.9300000000000D+00  0.0000000000000D+00  0.0000000000000D+00
   395  3.9400000000000D+00  0.0000000000000D+00  0.0000000000000D+00
   396  3.9500000000000D+00  0.0000000000000D+00  0.0000000000000D+00
   397  3.9600000000000D+00  0.0000000000000D+00  0.0000000000000D+00
   398  3.9700000000000D+00  0.0000000000000D+00  0.0000000000000D+00
   399  3.9800000000000D+00  0.0000000000000D+00  0.0000000000000D+00
   400  3.9900000000000D+00  0.0000000000000D+00  0.0000000000000D+00
   401  4.0000000000000D+00  0.0000000000000D+00  0.0000000000000D+00
   402  4.0100000000000D+00  0.0000000000000D+00  0.0000000000000D+00
   403  4.0200000000000D+00  0.0000000000000D+00  0.0000000000000D+00
   404  4.0300000000000D+00  0.0000000000000D+00  0.0000000000000D+00
   405  4.0400000000000D+00  0.0000000000000D+00  0.0000000000000D+00
   406  4.0500000000000D+00  0.0000000000000D+00  0.0000000000000D+00
   407  4.0600000000000D+00  0.0000000000000D+00  0.0000000000000D+00
   408  4.0700000000000D+00  0.0000000000000D+00  0.0000000000000D+00
   409  4.0800000000000D+00  0.0000000000000D+00  0.0000000000000D+00
   410  4.0900000000000D+00  0.0000000000000D+00  0.0000000000000D+00
   411  4.1000000000000D+00  0.0000000000000D+00  0.0000000000000D+00
   412  4.1100000000000D+00  0.0000000000000D+00  0.0000000000000D+00
   413  4.1200000000000D+00  0.0000000000000D+00  0.0000000000000D+00
   414  4.1300000000000D+00  0.0000000000000D+00  0.0000000000000D+00
   415  4.1400000000000D+00  0.0000000000000D+00  0.0000000000000D+00
   416  4.1500000000000D+00  0.0000000000000D+00  0.0000000000000D+00
   417  4.1600000000000D+00  0.0000000000000D+00  0.0000000000000D+00
   418  4.1700000000000D+00  0.0000000000000D+00  0.0000000000000D+00
   419  4.1800000000000D+00  0.0000000000000D+00  0.0000000000000D+00
   420  4.1900000000000D+00  0.0000000000000D+00  0.0000000000000D+00
   421  4.2000000000000D+00  0.0000000000000D+00  0.0000000000000D+00
   422  4.2100000000000D+00  0.0000000000000D+00  0.0000000000000D+00