Po    ONCVPSP-3.3.0  r_core=   2.20669   2.20669   1.91239
     84.0000     16.0000      220408    zatom,zion,pspd
     8       2   2     4   600     0    pspcod,pspxc,lmax,lloc,mmax,r2well
  5.99000000  0.00000000  0.00000000    rchrg fchrg qchrg
     2     2     2     0     0    nproj
     1     1           extension_switch
   0                         6.9736990594980D+00  1.1936984199326D+00
     1  0.0000000000000D+00  3.1922658960681D-12 -1.1357637053067D-11
     2  1.0000000000000D-02  8.6813096795895D-03  2.0267126394234D-02
     3  2.0000000000000D-02  1.7397104698286D-02  4.0444301224921D-02
     4  3.0000000000000D-02  2.6181740531723D-02  6.0441912870424D-02
     5  4.0000000000000D-02  3.5069313298185D-02  8.0171028492163D-02
     6  5.0000000000000D-02  4.4093531003153D-02  9.9543730677083D-02
     7  6.0000000000000D-02  5.3287585889463D-02  1.1847345078918D-01
     8  7.0000000000000D-02  6.2684028257942D-02  1.3687529794634D-01
     9  8.0000000000000D-02  7.2314642120165D-02  1.5466638255014D-01
    10  9.0000000000000D-02  8.2210323041013D-02  1.7176613331021D-01
    11  1.0000000000000D-01  9.2400958523968D-02  1.8809660672200D-01
    12  1.1000000000000D-01  1.0291531128648D-01  2.0358278797626D-01
    13  1.2000000000000D-01  1.1378090576639D-01  2.1815288230118D-01
    14  1.3000000000000D-01  1.2502391819333D-01  2.3173859576353D-01
    15  1.4000000000000D-01  1.3666907055086D-01  2.4427540458268D-01
    16  1.5000000000000D-01  1.4873952874665D-01  2.5570281204271D-01
    17  1.6000000000000D-01  1.6125680529821D-01  2.6596459212053D-01
    18  1.7000000000000D-01  1.7424066683164D-01  2.7500901898439D-01
    19  1.8000000000000D-01  1.8770904667949D-01  2.8278908155530D-01
    20  1.9000000000000D-01  2.0167796285223D-01  2.8926268236536D-01
    21  2.0000000000000D-01  2.1616144164493D-01  2.9439281999021D-01
    22  2.1000000000000D-01  2.3117144712765D-01  2.9814775437889D-01
    23  2.2000000000000D-01  2.4671781675370D-01  3.0050115445287D-01
    24  2.3000000000000D-01  2.6280820330510D-01  3.0143222739622D-01
    25  2.4000000000000D-01  2.7944802337895D-01  3.0092582911216D-01
    26  2.5000000000000D-01  2.9664041260240D-01  2.9897255537537D-01
    27  2.6000000000000D-01  3.1438618774649D-01  2.9556881326705D-01
    28  2.7000000000000D-01  3.3268381589186D-01  2.9071687253776D-01
    29  2.8000000000000D-01  3.5152939078103D-01  2.8442489660404D-01
    30  2.9000000000000D-01  3.7091661647292D-01  2.7670695294644D-01
    31  3.0000000000000D-01  3.9083679839594D-01  2.6758300274063D-01
    32  3.1000000000000D-01  4.1127884187623D-01  2.5707886961779D-01
    33  3.2000000000000D-01  4.3222925819671D-01  2.4522618751688D-01
    34  3.3000000000000D-01  4.5367217822216D-01  2.3206232765835D-01
    35  3.4000000000000D-01  4.7558937360387D-01  2.1763030473695D-01
    36  3.5000000000000D-01  4.9796028555590D-01  2.0197866249976D-01
    37  3.6000000000000D-01  5.2076206117294D-01  1.8516133894493D-01
    38  3.7000000000000D-01  5.4396959723733D-01  1.6723751144566D-01
    39  3.8000000000000D-01  5.6755559144073D-01  1.4827142217364D-01
    40  3.9000000000000D-01  5.9149060092280D-01  1.2833218426533D-01
    41  4.0000000000000D-01  6.1574310800704D-01  1.0749356924300D-01
    42  4.1000000000000D-01  6.4027959299096D-01  8.5833776271345D-02
    43  4.2000000000000D-01  6.6506461382525D-01  6.3435183897060D-02
    44  4.3000000000000D-01  6.9006089249404D-01  4.0384084985508D-02
    45  4.4000000000000D-01  7.1522940788619D-01  1.6770405633291D-02
    46  4.5000000000000D-01  7.4052949492535D-01 -7.3125911011953D-03
    47  4.6000000000000D-01  7.6591894970508D-01 -3.1768615745772D-02
    48  4.7000000000000D-01  7.9135414035400D-01 -5.6498676278308D-02
    49  4.8000000000000D-01  8.1679012333528D-01 -8.1401414286859D-02
    50  4.9000000000000D-01  8.4218076486473D-01 -1.0637345235222D-01
    51  5.0000000000000D-01  8.6747886711230D-01 -1.3130975152781D-01
    52  5.1000000000000D-01  8.9263629883337D-01 -1.5610397774350D-01
    53  5.2000000000000D-01  9.1760413005795D-01 -1.8064887591525D-01
    54  5.3000000000000D-01  9.4233277044980D-01 -2.0483665050123D-01
    55  5.4000000000000D-01  9.6677211093086D-01 -2.2855935120765D-01
    56  5.5000000000000D-01  9.9087166815227D-01 -2.5170926251467D-01
    57  5.6000000000000D-01  1.0145807313791D+00 -2.7417929566309D-01
    58  5.7000000000000D-01  1.0378485113443D+00 -2.9586338171875D-01
    59  5.8000000000000D-01  1.0606242906151D+00 -3.1665686431165D-01
    60  5.9000000000000D-01  1.0828575750073D+00 -3.3645689063128D-01
    61  6.0000000000000D-01  1.1044982455722D+00 -3.5516279925066D-01
    62  6.1000000000000D-01  1.1254967106769D+00 -3.7267650334599D-01
    63  6.2000000000000D-01  1.1458040576912D+00 -3.8890286787991D-01
    64  6.3000000000000D-01  1.1653722037917D+00 -4.0375007932191D-01
    65  6.4000000000000D-01  1.1841540453921D+00 -4.1713000649082D-01
    66  6.5000000000000D-01  1.2021036057087D+00 -4.2895855112157D-01
    67  6.6000000000000D-01  1.2191761799689D+00 -4.3915598678010D-01
    68  6.7000000000000D-01  1.2353284777780D+00 -4.4764728477915D-01
    69  6.8000000000000D-01  1.2505187621614D+00 -4.5436242578067D-01
    70  6.9000000000000D-01  1.2647069848062D+00 -4.5923669581019D-01
    71  7.0000000000000D-01  1.2778549170369D+00 -4.6221096545255D-01
    72  7.1000000000000D-01  1.2899262760680D+00 -4.6323195104915D-01
    73  7.2000000000000D-01  1.3008868460888D+00 -4.6225245677155D-01
    74  7.3000000000000D-01  1.3107045937509D+00 -4.5923159650744D-01
    75  7.4000000000000D-01  1.3193497776424D+00 -4.5413499455976D-01
    76  7.5000000000000D-01  1.3267950513516D+00 -4.4693496423077D-01
    77  7.6000000000000D-01  1.3330155597413D+00 -4.3761066343755D-01
    78  7.7000000000000D-01  1.3379890280744D+00 -4.2614822658463D-01
    79  7.8000000000000D-01  1.3416958436566D+00 -4.1254087200323D-01
    80  7.9000000000000D-01  1.3441191296801D+00 -3.9678898435370D-01
    81  8.0000000000000D-01  1.3452448109836D+00 -3.7890017147846D-01
    82  8.1000000000000D-01  1.3450616714644D+00 -3.5888929528723D-01
    83  8.2000000000000D-01  1.3435614029094D+00 -3.3677847635279D-01
    84  8.3000000000000D-01  1.3407386450393D+00 -3.1259707199505D-01
    85  8.4000000000000D-01  1.3365910165895D+00 -2.8638162773294D-01
    86  8.5000000000000D-01  1.3311191372825D+00 -2.5817580208650D-01
    87  8.6000000000000D-01  1.3243266405779D+00 -2.2803026481620D-01
    88  8.7000000000000D-01  1.3162201771176D+00 -1.9600256879201D-01
    89  8.8000000000000D-01  1.3068094088173D+00 -1.6215699579015D-01
    90  8.9000000000000D-01  1.2961069935882D+00 -1.2656437662155D-01
    91  9.0000000000000D-01  1.2841285607057D+00 -8.9301886101028D-02
    92  9.1000000000000D-01  1.2708926768771D+00 -5.0452813470528D-02
    93  9.2000000000000D-01  1.2564208030921D+00 -1.0106308992778D-02
    94  9.3000000000000D-01  1.2407372423754D+00  3.1642892467653D-02
    95  9.4000000000000D-01  1.2238690785916D+00  7.4694769960024D-02
    96  9.5000000000000D-01  1.2058461064897D+00  1.1894433604829D-01
    97  9.6000000000000D-01  1.1867007532020D+00  1.6428197639311D-01
    98  9.7000000000000D-01  1.1664679914487D+00  2.1059380812225D-01
    99  9.8000000000000D-01  1.1451852447271D+00  2.5776205571191D-01
   100  9.9000000000000D-01  1.1228922847968D+00  3.0566544302143D-01
   101  1.0000000000000D+00  1.0996311218006D+00  3.5417960004858D-01
   102  1.0100000000000D+00  1.0754458873882D+00  4.0317748290438D-01
   103  1.0200000000000D+00  1.0503827112374D+00  4.5252980543985D-01
   104  1.0300000000000D+00  1.0244895913924D+00  5.0210548090173D-01
   105  1.0400000000000D+00  9.9781625886164D-01  5.5177207194141D-01
   106  1.0500000000000D+00  9.7041403694151D-01  6.0139624725706D-01
   107  1.0600000000000D+00  9.4233569575005D-01  6.5084424311130D-01
   108  1.0700000000000D+00  9.1363530247502D-01  6.9998232793670D-01
   109  1.0800000000000D+00  8.8436806785644D-01  7.4867726821678D-01
   110  1.0900000000000D+00  8.5459018943811D-01  7.9679679381629D-01
   111  1.1000000000000D+00  8.2435869213509D-01  8.4421006092659D-01
   112  1.1100000000000D+00  7.9373126667377D-01  8.9078811079190D-01
   113  1.1200000000000D+00  7.6276610646958D-01  9.3640432238941D-01
   114  1.1300000000000D+00  7.3152174351324D-01  9.8093485725326D-01
   115  1.1400000000000D+00  7.0005688383905D-01  1.0242590946572D+00
   116  1.1500000000000D+00  6.6843024315004D-01  1.0662600554023D+00
   117  1.1600000000000D+00  6.3670038317438D-01  1.1068248124901D+00
   118  1.1700000000000D+00  6.0492554932287D-01  1.1458448870182D+00
   119  1.1800000000000D+00  5.7316351021067D-01  1.1832166276902D+00
   120  1.1900000000000D+00  5.4147139960074D-01  1.2188415723807D+00
   121  1.2000000000000D+00  5.0990556131439D-01  1.2526267902767D+00
   122  1.2100000000000D+00  4.7852139764076D-01  1.2844852031969D+00
   123  1.2200000000000D+00  4.4737322176179D-01  1.3143358847718D+00
   124  1.2300000000000D+00  4.1651411469885D-01  1.3421043362277D+00
   125  1.2400000000000D+00  3.8599578725894D-01  1.3677227376579D+00
   126  1.2500000000000D+00  3.5586844743654D-01  1.3911301737629D+00
   127  1.2600000000000D+00  3.2618067372290D-01  1.4122728330672D+00
   128  1.2700000000000D+00  2.9697929472574D-01  1.4311041798395D+00
   129  1.2800000000000D+00  2.6830927548169D-01  1.4475850980259D+00
   130  1.2900000000000D+00  2.4021361083982D-01  1.4616840065262D+00
   131  1.3000000000000D+00  2.1273322623243D-01  1.4733769454059D+00
   132  1.3100000000000D+00  1.8590688612452D-01  1.4826476327243D+00
   133  1.3200000000000D+00  1.5977111044082D-01  1.4894874916392D+00
   134  1.3300000000000D+00  1.3436009917660D-01  1.4938956478076D+00
   135  1.3400000000000D+00  1.0970566539900D-01  1.4958788970911D+00
   136  1.3500000000000D+00  8.5837176833759D-02  1.4954516436293D+00
   137  1.3600000000000D+00  6.2781506131436D-02  1.4926358087090D+00
   138  1.3700000000000D+00  4.0562989939242D-02  1.4874607107360D+00
   139  1.3800000000000D+00  1.9203396846908D-02  1.4799629168340D+00
   140  1.3900000000000D+00 -1.2780958068226D-03  1.4701860668603D+00
   141  1.4000000000000D+00 -2.0864916209019D-02  1.4581806703980D+00
   142  1.4100000000000D+00 -3.9543103527624D-02  1.4440038778048D+00
   143  1.4200000000000D+00 -5.7301304601643D-02  1.4277192262422D+00
   144  1.4300000000000D+00 -7.4130761949331D-02  1.4093963617188D+00
   145  1.4400000000000D+00 -9.0025293305295D-02  1.3891107385550D+00
   146  1.4500000000000D+00 -1.0498126277297D-01  1.3669432973154D+00
   147  1.4600000000000D+00 -1.1899754387859D-01  1.3429801228393D+00
   148  1.4700000000000D+00 -1.3207547471740D-01  1.3173120837100D+00
   149  1.4800000000000D+00 -1.4421880545600D-01  1.2900344547365D+00
   150  1.4900000000000D+00 -1.5543363852969D-01  1.2612465241720D+00
   151  1.5000000000000D+00 -1.6572836176999D-01  1.2310511871787D+00
   152  1.5100000000000D+00 -1.7511357490475D-01  1.1995545274981D+00
   153  1.5200000000000D+00 -1.8360200969666D-01  1.1668653889145D+00
   154  1.5300000000000D+00 -1.9120844418461D-01  1.1330949385003D+00
   155  1.5400000000000D+00 -1.9794961137752D-01  1.0983562233904D+00
   156  1.5500000000000D+00 -2.0384410284584D-01  1.0627637230366D+00
   157  1.5600000000000D+00 -2.0891226764206D-01  1.0264328987752D+00
   158  1.5700000000000D+00 -2.1317610698127D-01  9.8947974267079D-01
   159  1.5800000000000D+00 -2.1665916516350D-01  9.5202032741402D-01
   160  1.5900000000000D+00 -2.1938641717270D-01  9.1417035932419D-01
   161  1.6000000000000D+00 -2.2138415344757D-01  8.7604473603765D-01
   162  1.6100000000000D+00 -2.2267986228183D-01  8.3775711106592D-01
   163  1.6200000000000D+00 -2.2330211032935D-01  7.9941946654962D-01
   164  1.6300000000000D+00 -2.2328042170343D-01  7.6114169644791D-01
   165  1.6400000000000D+00 -2.2264515610844D-01  7.2303120128078D-01
   166  1.6500000000000D+00 -2.2142738651598D-01  6.8519249661549D-01
   167  1.6600000000000D+00 -2.1965877678347D-01  6.4772683622156D-01
   168  1.6700000000000D+00 -2.1737145973597D-01  6.1073185198478D-01
   169  1.6800000000000D+00 -2.1459791606455D-01  5.7430121128699D-01
   170  1.6900000000000D+00 -2.1137085456237D-01  5.3852429383004D-01
   171  1.7000000000000D+00 -2.0772309399651D-01  5.0348588833422D-01
   172  1.7100000000000D+00 -2.0368744713774D-01  4.6926591100917D-01
   173  1.7200000000000D+00 -1.9929660717157D-01  4.3593914585517D-01
   174  1.7300000000000D+00 -1.9458303702564D-01  4.0357500868974D-01
   175  1.7400000000000D+00 -1.8957886173278D-01  3.7223733445300D-01
   176  1.7500000000000D+00 -1.8431576440117D-01  3.4198418980344D-01
   177  1.7600000000000D+00 -1.7882488576849D-01  3.1286770989226D-01
   178  1.7700000000000D+00 -1.7313672798142D-01  2.8493396159510D-01
   179  1.7800000000000D+00 -1.6728106239130D-01  2.5822283125843D-01
   180  1.7900000000000D+00 -1.6128684210896D-01  2.3276793962740D-01
   181  1.8000000000000D+00 -1.5518211890649D-01  2.0859658115631D-01
   182  1.8100000000000D+00 -1.4899396527802D-01  1.8572969057425D-01
   183  1.8200000000000D+00 -1.4274840114226D-01  1.6418183354030D-01
   184  1.8300000000000D+00 -1.3647032590423D-01  1.4396122372085D-01
   185  1.8400000000000D+00 -1.3018345543366D-01  1.2506976356271D-01
   186  1.8500000000000D+00 -1.2391026378525D-01  1.0750310737259D-01
   187  1.8600000000000D+00 -1.1767193294099D-01  9.1250758844398D-02
   188  1.8700000000000D+00 -1.1148830137029D-01  7.6296166407643D-02
   189  1.8800000000000D+00 -1.0537782476318D-01  6.2616865936085D-02
   190  1.8900000000000D+00 -9.9357557151617D-02  5.0184702864894D-02
   191  1.9000000000000D+00 -9.3443092753902D-02  3.8965913260165D-02
   192  1.9100000000000D+00 -8.7648469215752D-02  2.8921021943569D-02
   193  1.9200000000000D+00 -8.1986330179141D-02  2.0005789180832D-02
   194  1.9300000000000D+00 -7.6467994928849D-02  1.2171798637242D-02
   195  1.9400000000000D+00 -7.1103574930919D-02  5.3671347925259D-03
   196  1.9500000000000D+00 -6.5902145506488D-02 -4.6273144641764D-04
   197  1.9600000000000D+00 -6.0871845317159D-02 -5.3743533929743D-03
   198  1.9700000000000D+00 -5.6019868285043D-02 -9.4261636121183D-03
   199  1.9800000000000D+00 -5.1352484990110D-02 -1.2678235437302D-02
   200  1.9900000000000D+00 -4.6875125154136D-02 -1.5191771067445D-02
   201  2.0000000000000D+00 -4.2592412557940D-02 -1.7028804968832D-02
   202  2.0100000000000D+00 -3.8508217976649D-02 -1.8251835682655D-02
   203  2.0200000000000D+00 -3.4625710451567D-02 -1.8923470285161D-02
   204  2.0300000000000D+00 -3.0947408230699D-02 -1.9106076204264D-02
   205  2.0400000000000D+00 -2.7475229945234D-02 -1.8861438283745D-02
   206  2.0500000000000D+00 -2.4210545603885D-02 -1.8250422612054D-02
   207  2.0600000000000D+00 -2.1154226557685D-02 -1.7332651300433D-02
   208  2.0700000000000D+00 -1.8306694665126D-02 -1.6166186841612D-02
   209  2.0800000000000D+00 -1.5667969866724D-02 -1.4807229805156D-02
   210  2.0900000000000D+00 -1.3237715958573D-02 -1.3309830762645D-02
   211  2.1000000000000D+00 -1.1015284638766D-02 -1.1725616014045D-02
   212  2.1100000000000D+00 -8.9997566694540D-03 -1.0103532447823D-02
   213  2.1200000000000D+00 -7.1899809620280D-03 -8.4896077488515D-03
   214  2.1300000000000D+00 -5.5847230500604D-03 -6.9269780287224D-03
   215  2.1400000000000D+00 -4.1832155345999D-03 -5.4568239411781D-03
   216  2.1500000000000D+00 -2.9816114288214D-03 -4.1103497919388D-03
   217  2.1600000000000D+00 -1.9758136389559D-03 -2.9131189322143D-03
   218  2.1700000000000D+00 -1.1687400416663D-03 -1.9061745596560D-03
   219  2.1800000000000D+00 -5.6625233018773D-04 -1.1346846025261D-03
   220  2.1900000000000D+00 -1.6688236277003D-04 -6.3282521764076D-04
   221  2.2000000000000D+00  5.1534806481028D-05 -3.3678276907570D-04
   222  2.2100000000000D+00  1.2052316261482D-04 -1.6998070854606D-04
   223  2.2200000000000D+00  8.7425771300551D-05 -6.6603841450130D-05
   224  2.2300000000000D+00  1.9789228054852D-05 -1.0605669784298D-05
   225  2.2400000000000D+00 -1.8502375240402D-05  8.4241872796562D-06
   226  2.2500000000000D+00 -1.8681103184133D-05  6.9607936047577D-06
   227  2.2600000000000D+00  2.0135413664206D-08 -1.3234326054535D-08
   228  2.2700000000000D+00  4.3658328281192D-06 -2.6656833270480D-06
   229  2.2800000000000D+00  3.1189546639278D-06 -1.7916023044513D-06
   230  2.2900000000000D+00 -1.2112652886951D-07  2.3417577006158D-07
   231  2.3000000000000D+00 -3.2094418554518D-07  6.2048630055101D-07
   232  2.3100000000000D+00 -1.5036155637743D-07  2.9069629569154D-07
   233  2.3200000000000D+00  0.0000000000000D+00  0.0000000000000D+00
   234  2.3300000000000D+00  0.0000000000000D+00  0.0000000000000D+00
   235  2.3400000000000D+00  0.0000000000000D+00  0.0000000000000D+00
   236  2.3500000000000D+00  0.0000000000000D+00  0.0000000000000D+00
   237  2.3600000000000D+00  0.0000000000000D+00  0.0000000000000D+00
   238  2.3700000000000D+00  0.0000000000000D+00  0.0000000000000D+00
   239  2.3800000000000D+00  0.0000000000000D+00  0.0000000000000D+00
   240  2.3900000000000D+00  0.0000000000000D+00  0.0000000000000D+00
   241  2.4000000000000D+00  0.0000000000000D+00  0.0000000000000D+00
   242  2.4100000000000D+00  0.0000000000000D+00  0.0000000000000D+00
   243  2.4200000000000D+00  0.0000000000000D+00  0.0000000000000D+00
   244  2.4300000000000D+00  0.0000000000000D+00  0.0000000000000D+00
   245  2.4400000000000D+00  0.0000000000000D+00  0.0000000000000D+00
   246  2.4500000000000D+00  0.0000000000000D+00  0.0000000000000D+00
   247  2.4600000000000D+00  0.0000000000000D+00  0.0000000000000D+00
   248  2.4700000000000D+00  0.0000000000000D+00  0.0000000000000D+00
   249  2.4800000000000D+00  0.0000000000000D+00  0.0000000000000D+00
   250  2.4900000000000D+00  0.0000000000000D+00  0.0000000000000D+00
   251  2.5000000000000D+00  0.0000000000000D+00  0.0000000000000D+00
   252  2.5100000000000D+00  0.0000000000000D+00  0.0000000000000D+00
   253  2.5200000000000D+00  0.0000000000000D+00  0.0000000000000D+00
   254  2.5300000000000D+00  0.0000000000000D+00  0.0000000000000D+00
   255  2.5400000000000D+00  0.0000000000000D+00  0.0000000000000D+00
   256  2.5500000000000D+00  0.0000000000000D+00  0.0000000000000D+00
   257  2.5600000000000D+00  0.0000000000000D+00  0.0000000000000D+00
   258  2.5700000000000D+00  0.0000000000000D+00  0.0000000000000D+00
   259  2.5800000000000D+00  0.0000000000000D+00  0.0000000000000D+00
   260  2.5900000000000D+00  0.0000000000000D+00  0.0000000000000D+00
   261  2.6000000000000D+00  0.0000000000000D+00  0.0000000000000D+00
   262  2.6100000000000D+00  0.0000000000000D+00  0.0000000000000D+00
   263  2.6200000000000D+00  0.0000000000000D+00  0.0000000000000D+00
   264  2.6300000000000D+00  0.0000000000000D+00  0.0000000000000D+00
   265  2.6400000000000D+00  0.0000000000000D+00  0.0000000000000D+00
   266  2.6500000000000D+00  0.0000000000000D+00  0.0000000000000D+00
   267  2.6600000000000D+00  0.0000000000000D+00  0.0000000000000D+00
   268  2.6700000000000D+00  0.0000000000000D+00  0.0000000000000D+00
   269  2.6800000000000D+00  0.0000000000000D+00  0.0000000000000D+00
   270  2.6900000000000D+00  0.0000000000000D+00  0.0000000000000D+00
   271  2.7000000000000D+00  0.0000000000000D+00  0.0000000000000D+00
   272  2.7100000000000D+00  0.0000000000000D+00  0.0000000000000D+00
   273  2.7200000000000D+00  0.0000000000000D+00  0.0000000000000D+00
   274  2.7300000000000D+00  0.0000000000000D+00  0.0000000000000D+00
   275  2.7400000000000D+00  0.0000000000000D+00  0.0000000000000D+00
   276  2.7500000000000D+00  0.0000000000000D+00  0.0000000000000D+00
   277  2.7600000000000D+00  0.0000000000000D+00  0.0000000000000D+00
   278  2.7700000000000D+00  0.0000000000000D+00  0.0000000000000D+00
   279  2.7800000000000D+00  0.0000000000000D+00  0.0000000000000D+00
   280  2.7900000000000D+00  0.0000000000000D+00  0.0000000000000D+00
   281  2.8000000000000D+00  0.0000000000000D+00  0.0000000000000D+00
   282  2.8100000000000D+00  0.0000000000000D+00  0.0000000000000D+00
   283  2.8200000000000D+00  0.0000000000000D+00  0.0000000000000D+00
   284  2.8300000000000D+00  0.0000000000000D+00  0.0000000000000D+00
   285  2.8400000000000D+00  0.0000000000000D+00  0.0000000000000D+00
   286  2.8500000000000D+00  0.0000000000000D+00  0.0000000000000D+00
   287  2.8600000000000D+00  0.0000000000000D+00  0.0000000000000D+00
   288  2.8700000000000D+00  0.0000000000000D+00  0.0000000000000D+00
   289  2.8800000000000D+00  0.0000000000000D+00  0.0000000000000D+00
   290  2.8900000000000D+00  0.0000000000000D+00  0.0000000000000D+00
   291  2.9000000000000D+00  0.0000000000000D+00  0.0000000000000D+00
   292  2.9100000000000D+00  0.0000000000000D+00  0.0000000000000D+00
   293  2.9200000000000D+00  0.0000000000000D+00  0.0000000000000D+00
   294  2.9300000000000D+00  0.0000000000000D+00  0.0000000000000D+00
   295  2.9400000000000D+00  0.0000000000000D+00  0.0000000000000D+00
   296  2.9500000000000D+00  0.0000000000000D+00  0.0000000000000D+00
   297  2.9600000000000D+00  0.0000000000000D+00  0.0000000000000D+00
   298  2.9700000000000D+00  0.0000000000000D+00  0.0000000000000D+00
   299  2.9800000000000D+00  0.0000000000000D+00  0.0000000000000D+00
   300  2.9900000000000D+00  0.0000000000000D+00  0.0000000000000D+00
   301  3.0000000000000D+00  0.0000000000000D+00  0.0000000000000D+00
   302  3.0100000000000D+00  0.0000000000000D+00  0.0000000000000D+00
   303  3.0200000000000D+00  0.0000000000000D+00  0.0000000000000D+00
   304  3.0300000000000D+00  0.0000000000000D+00  0.0000000000000D+00
   305  3.0400000000000D+00  0.0000000000000D+00  0.0000000000000D+00
   306  3.0500000000000D+00  0.0000000000000D+00  0.0000000000000D+00
   307  3.0600000000000D+00  0.0000000000000D+00  0.0000000000000D+00
   308  3.0700000000000D+00  0.0000000000000D+00  0.0000000000000D+00
   309  3.0800000000000D+00  0.0000000000000D+00  0.0000000000000D+00
   310  3.0900000000000D+00  0.0000000000000D+00  0.0000000000000D+00
   311  3.1000000000000D+00  0.0000000000000D+00  0.0000000000000D+00
   312  3.1100000000000D+00  0.0000000000000D+00  0.0000000000000D+00
   313  3.1200000000000D+00  0.0000000000000D+00  0.0000000000000D+00
   314  3.1300000000000D+00  0.0000000000000D+00  0.0000000000000D+00
   315  3.1400000000000D+00  0.0000000000000D+00  0.0000000000000D+00
   316  3.1500000000000D+00  0.0000000000000D+00  0.0000000000000D+00
   317  3.1600000000000D+00  0.0000000000000D+00  0.0000000000000D+00
   318  3.1700000000000D+00  0.0000000000000D+00  0.0000000000000D+00
   319  3.1800000000000D+00  0.0000000000000D+00  0.0000000000000D+00
   320  3.1900000000000D+00  0.0000000000000D+00  0.0000000000000D+00
   321  3.2000000000000D+00  0.0000000000000D+00  0.0000000000000D+00
   322  3.2100000000000D+00  0.0000000000000D+00  0.0000000000000D+00
   323  3.2200000000000D+00  0.0000000000000D+00  0.0000000000000D+00
   324  3.2300000000000D+00  0.0000000000000D+00  0.0000000000000D+00
   325  3.2400000000000D+00  0.0000000000000D+00  0.0000000000000D+00
   326  3.2500000000000D+00  0.0000000000000D+00  0.0000000000000D+00
   327  3.2600000000000D+00  0.0000000000000D+00  0.0000000000000D+00
   328  3.2700000000000D+00  0.0000000000000D+00  0.0000000000000D+00
   329  3.2800000000000D+00  0.0000000000000D+00  0.0000000000000D+00
   330  3.2900000000000D+00  0.0000000000000D+00  0.0000000000000D+00
   331  3.3000000000000D+00  0.0000000000000D+00  0.0000000000000D+00
   332  3.3100000000000D+00  0.0000000000000D+00  0.0000000000000D+00
   333  3.3200000000000D+00  0.0000000000000D+00  0.0000000000000D+00
   334  3.3300000000000D+00  0.0000000000000D+00  0.0000000000000D+00
   335  3.3400000000000D+00  0.0000000000000D+00  0.0000000000000D+00
   336  3.3500000000000D+00  0.0000000000000D+00  0.0000000000000D+00
   337  3.3600000000000D+00  0.0000000000000D+00  0.0000000000000D+00
   338  3.3700000000000D+00  0.0000000000000D+00  0.0000000000000D+00
   339  3.3800000000000D+00  0.0000000000000D+00  0.0000000000000D+00
   340  3.3900000000000D+00  0.0000000000000D+00  0.0000000000000D+00
   341  3.4000000000000D+00  0.0000000000000D+00  0.0000000000000D+00
   342  3.4100000000000D+00  0.0000000000000D+00  0.0000000000000D+00
   343  3.4200000000000D+00  0.0000000000000D+00  0.0000000000000D+00
   344  3.4300000000000D+00  0.0000000000000D+00  0.0000000000000D+00
   345  3.4400000000000D+00  0.0000000000000D+00  0.0000000000000D+00
   346  3.4500000000000D+00  0.0000000000000D+00  0.0000000000000D+00
   347  3.4600000000000D+00  0.0000000000000D+00  0.0000000000000D+00
   348  3.4700000000000D+00  0.0000000000000D+00  0.0000000000000D+00
   349  3.4800000000000D+00  0.0000000000000D+00  0.0000000000000D+00
   350  3.4900000000000D+00  0.0000000000000D+00  0.0000000000000D+00
   351  3.5000000000000D+00  0.0000000000000D+00  0.0000000000000D+00
   352  3.5100000000000D+00  0.0000000000000D+00  0.0000000000000D+00
   353  3.5200000000000D+00  0.0000000000000D+00  0.0000000000000D+00
   354  3.5300000000000D+00  0.0000000000000D+00  0.0000000000000D+00
   355  3.5400000000000D+00  0.0000000000000D+00  0.0000000000000D+00
   356  3.5500000000000D+00  0.0000000000000D+00  0.0000000000000D+00
   357  3.5600000000000D+00  0.0000000000000D+00  0.0000000000000D+00
   358  3.5700000000000D+00  0.0000000000000D+00  0.0000000000000D+00
   359  3.5800000000000D+00  0.0000000000000D+00  0.0000000000000D+00
   360  3.5900000000000D+00  0.0000000000000D+00  0.0000000000000D+00
   361  3.6000000000000D+00  0.0000000000000D+00  0.0000000000000D+00
   362  3.6100000000000D+00  0.0000000000000D+00  0.0000000000000D+00
   363  3.6200000000000D+00  0.0000000000000D+00  0.0000000000000D+00
   364  3.6300000000000D+00  0.0000000000000D+00  0.0000000000000D+00
   365  3.6400000000000D+00  0.0000000000000D+00  0.0000000000000D+00
   366  3.6500000000000D+00  0.0000000000000D+00  0.0000000000000D+00
   367  3.6600000000000D+00  0.0000000000000D+00  0.0000000000000D+00
   368  3.6700000000000D+00  0.0000000000000D+00  0.0000000000000D+00
   369  3.6800000000000D+00  0.0000000000000D+00  0.0000000000000D+00
   370  3.6900000000000D+00  0.0000000000000D+00  0.0000000000000D+00
   371  3.7000000000000D+00  0.0000000000000D+00  0.0000000000000D+00
   372  3.7100000000000D+00  0.0000000000000D+00  0.0000000000000D+00
   373  3.7200000000000D+00  0.0000000000000D+00  0.0000000000000D+00
   374  3.7300000000000D+00  0.0000000000000D+00  0.0000000000000D+00
   375  3.7400000000000D+00  0.0000000000000D+00  0.0000000000000D+00
   376  3.7500000000000D+00  0.0000000000000D+00  0.0000000000000D+00
   377  3.7600000000000D+00  0.0000000000000D+00  0.0000000000000D+00
   378  3.7700000000000D+00  0.0000000000000D+00  0.0000000000000D+00
   379  3.7800000000000D+00  0.0000000000000D+00  0.0000000000000D+00
   380  3.7900000000000D+00  0.0000000000000D+00  0.0000000000000D+00
   381  3.8000000000000D+00  0.0000000000000D+00  0.0000000000000D+00
   382  3.8100000000000D+00  0.0000000000000D+00  0.0000000000000D+00
   383  3.8200000000000D+00  0.0000000000000D+00  0.0000000000000D+00
   384  3.8300000000000D+00  0.0000000000000D+00  0.0000000000000D+00
   385  3.8400000000000D+00  0.0000000000000D+00  0.0000000000000D+00
   386  3.8500000000000D+00  0.0000000000000D+00  0.0000000000000D+00
   387  3.8600000000000D+00  0.0000000000000D+00  0.0000000000000D+00
   388  3.8700000000000D+00  0.0000000000000D+00  0.0000000000000D+00
   389  3.8800000000000D+00  0.0000000000000D+00  0.0000000000000D+00
   390  3.8900000000000D+00  0.0000000000000D+00  0.0000000000000D+00
   391  3.9000000000000D+00  0.0000000000000D+00  0.0000000000000D+00
   392  3.9100000000000D+00  0.0000000000000D+00  0.0000000000000D+00
   393  3.9200000000000D+00  0.0000000000000D+00  0.0000000000000D+00
   394  3.9300000000000D+00  0.0000000000000D+00  0.0000000000000D+00
   395  3.9400000000000D+00  0.0000000000000D+00  0.0000000000000D+00
   396  3.9500000000000D+00  0.0000000000000D+00  0.0000000000000D+00
   397  3.9600000000000D+00  0.0000000000000D+00  0.0000000000000D+00
   398  3.9700000000000D+00  0.0000000000000D+00  0.0000000000000D+00
   399  3.9800000000000D+00  0.0000000000000D+00  0.0000000000000D+00
   400  3.9900000000000D+00  0.0000000000000D+00  0.0000000000000D+00
   401  4.0000000000000D+00  0.0000000000000D+00  0.0000000000000D+00
   402  4.0100000000000D+00  0.0000000000000D+00  0.0000000000000D+00
   403  4.0200000000000D+00  0.0000000000000D+00  0.0000000000000D+00
   404  4.0300000000000D+00  0.0000000000000D+00  0.0000000000000D+00
   405  4.0400000000000D+00  0.0000000000000D+00  0.0000000000000D+00
   406  4.0500000000000D+00  0.0000000000000D+00  0.0000000000000D+00
   407  4.0600000000000D+00  0.0000000000000D+00  0.0000000000000D+00
   408  4.0700000000000D+00  0.0000000000000D+00  0.0000000000000D+00
   409  4.0800000000000D+00  0.0000000000000D+00  0.0000000000000D+00
   410  4.0900000000000D+00  0.0000000000000D+00  0.0000000000000D+00
   411  4.1000000000000D+00  0.0000000000000D+00  0.0000000000000D+00
   412  4.1100000000000D+00  0.0000000000000D+00  0.0000000000000D+00
   413  4.1200000000000D+00  0.0000000000000D+00  0.0000000000000D+00
   414  4.1300000000000D+00  0.0000000000000D+00  0.0000000000000D+00
   415  4.1400000000000D+00  0.0000000000000D+00  0.0000000000000D+00
   416  4.1500000000000D+00  0.0000000000000D+00  0.0000000000000D+00
   417  4.1600000000000D+00  0.0000000000000D+00  0.0000000000000D+00
   418  4.1700000000000D+00  0.0000000000000D+00  0.0000000000000D+00
   419  4.1800000000000D+00  0.0000000000000D+00  0.0000000000000D+00
   420  4.1900000000000D+00  0.0000000000000D+00  0.0000000000000D+00
   421  4.2000000000000D+00  0.0000000000000D+00  0.0000000000000D+00
   422  4.2100000000000D+00  0.0000000000000D+00  0.0000000000000D+00