Po    ONCVPSP-3.3.0  r_core=   1.40243   1.50649   1.40243
     84.0000     24.0000      220408    zatom,zion,pspd
     8       2   2     4   600     0    pspcod,pspxc,lmax,lloc,mmax,r2well
  5.99000000  0.00000000  0.00000000    rchrg fchrg qchrg
     2     2     2     0     0    nproj
     1     1           extension_switch
   0                         1.8638215414495D+01  2.6295071076020D+00
     1  0.0000000000000D+00 -1.0582260623337D-09  2.2140152627914D-09
     2  1.0000000000000D-02  8.9801332377297D-02 -1.6437783794463D-02
     3  2.0000000000000D-02  1.7931109502399D-01 -3.2623247026142D-02
     4  3.0000000000000D-02  2.6823936623387D-01 -4.8306716170136D-02
     5  4.0000000000000D-02  3.5629950203483D-01 -6.3243774591956D-02
     6  5.0000000000000D-02  4.4320972954432D-01 -7.7197798604259D-02
     7  6.0000000000000D-02  5.2869468647632D-01 -8.9942384258512D-02
     8  7.0000000000000D-02  6.1248689011393D-01 -1.0126363109261D-01
     9  8.0000000000000D-02  6.9432812011979D-01 -1.1096225126949D-01
    10  9.0000000000000D-02  7.7397070084881D-01 -1.1885547524592D-01
    11  1.0000000000000D-01  8.5117867033413D-01 -1.2477872826481D-01
    12  1.1000000000000D-01  9.2572882481484D-01 -1.2858705551954D-01
    13  1.2000000000000D-01  9.9741162953707D-01 -1.3015627774252D-01
    14  1.3000000000000D-01  1.0660319885590D+00 -1.2938386316209D-01
    15  1.4000000000000D-01  1.1314098683951D+00 -1.2618950618782D-01
    16  1.5000000000000D-01  1.1933807725136D+00 -1.2051540775752D-01
    17  1.6000000000000D-01  1.2517960659153D+00 -1.1232625693776D-01
    18  1.7000000000000D-01  1.3065231512460D+00 -1.0160891804294D-01
    19  1.8000000000000D-01  1.3574455000809D+00 -8.8371832151236D-02
    20  1.9000000000000D-01  1.4044625451458D+00 -7.2644146377970D-02
    21  2.0000000000000D-01  1.4474894412630D+00 -5.4474588546166D-02
    22  2.1000000000000D-01  1.4864567047007D+00 -3.3930108901877D-02
    23  2.2000000000000D-01  1.5213097423332D+00 -1.1094314193647D-02
    24  2.3000000000000D-01  1.5520082835538D+00  1.3934277289771D-02
    25  2.4000000000000D-01  1.5785257292003D+00  4.1044128305910D-02
    26  2.5000000000000D-01  1.6008484328275D+00  7.0112689128414D-02
    27  2.6000000000000D-01  1.6189749304762D+00  1.0100848237738D-01
    28  2.7000000000000D-01  1.6329151356312D+00  1.3359322947945D-01
    29  2.8000000000000D-01  1.6426895163077D+00  1.6772398141863D-01
    30  2.9000000000000D-01  1.6483282711707D+00  2.0325521644483D-01
    31  3.0000000000000D-01  1.6498705212512D+00  2.4004086803433D-01
    32  3.1000000000000D-01  1.6473635331971D+00  2.7793624764098D-01
    33  3.2000000000000D-01  1.6408619890773D+00  3.1679982862576D-01
    34  3.3000000000000D-01  1.6304273165745D+00  3.5649486018225D-01
    35  3.4000000000000D-01  1.6161270919516D+00  3.9689078305480D-01
    36  3.5000000000000D-01  1.5980345264992D+00  4.3786442233171D-01
    37  3.6000000000000D-01  1.5762280452793D+00  4.7930093653893D-01
    38  3.7000000000000D-01  1.5507909649066D+00  5.2109450660068D-01
    39  3.8000000000000D-01  1.5218112748916D+00  5.6314875290738D-01
    40  3.9000000000000D-01  1.4893815247312D+00  6.0537687366561D-01
    41  4.0000000000000D-01  1.4535988165291D+00  6.4770150282204D-01
    42  4.1000000000000D-01  1.4145649004839D+00  6.9005429107229D-01
    43  4.2000000000000D-01  1.3723863681468D+00  7.3237521870001D-01
    44  4.3000000000000D-01  1.3271749359682D+00  7.7461165415678D-01
    45  4.4000000000000D-01  1.2790478093556D+00  8.1671717729958D-01
    46  4.5000000000000D-01  1.2281281153086D+00  8.5865019096685D-01
    47  4.6000000000000D-01  1.1745453897073D+00  9.0037234900890D-01
    48  4.7000000000000D-01  1.1184361035608D+00  9.4184683291606D-01
    49  4.8000000000000D-01  1.0599442109944D+00  9.8303651273274D-01
    50  4.9000000000000D-01  9.9922170051258D-01  1.0239020309366D+00
    51  5.0000000000000D-01  9.3642913013697D-01  1.0643998503417D+00
    52  5.1000000000000D-01  8.7173612642180D-01  1.1044803087945D+00
    53  5.2000000000000D-01  8.0532182709691D-01  1.1440857244388D+00
    54  5.3000000000000D-01  7.3737524720995D-01  1.1831485955835D+00
    55  5.4000000000000D-01  6.6809554913121D-01  1.2215899387086D+00
    56  5.5000000000000D-01  5.9769219765458D-01  1.2593178068785D+00
    57  5.6000000000000D-01  5.2638498267296D-01  1.2962260287841D+00
    58  5.7000000000000D-01  4.5440389350694D-01  1.3321932058618D+00
    59  5.8000000000000D-01  3.8198883092322D-01  1.3670820014080D+00
    60  5.9000000000000D-01  3.0938914514295D-01  1.4007387514416D+00
    61  6.0000000000000D-01  2.3686299071946D-01  1.4329934222208D+00
    62  6.1000000000000D-01  1.6467649197651D-01  1.4636599339752D+00
    63  6.2000000000000D-01  9.3102715760056D-02  1.4925368645148D+00
    64  6.3000000000000D-01  2.2420451465875D-02  1.5194085401391D+00
    65  6.4000000000000D-01 -4.7087198341405D-02  1.5440465146878D+00
    66  6.5000000000000D-01 -1.1513440997264D-01  1.5662114307848D+00
    67  6.6000000000000D-01 -1.8143440314495D-01  1.5856552504777D+00
    68  6.7000000000000D-01 -2.4570136440093D-01  1.6021238355884D+00
    69  6.8000000000000D-01 -3.0765251250588D-01  1.6153598513588D+00
    70  6.9000000000000D-01 -3.6701028574656D-01  1.6251059604809D+00
    71  7.0000000000000D-01 -4.2350462809812D-01  1.6311082684611D+00
    72  7.1000000000000D-01 -4.7687534851666D-01  1.6331199755677D+00
    73  7.2000000000000D-01 -5.2687452523652D-01  1.6309051855101D+00
    74  7.3000000000000D-01 -5.7326892491950D-01  1.6242428165387D+00
    75  7.4000000000000D-01 -6.1584240488375D-01  1.6129305569651D+00
    76  7.5000000000000D-01 -6.5439826545488D-01  1.5967888042285D+00
    77  7.6000000000000D-01 -6.8876151877618D-01  1.5756645246736D+00
    78  7.7000000000000D-01 -7.1878104020641D-01  1.5494349702005D+00
    79  7.8000000000000D-01 -7.4433156874083D-01  1.5180111879287D+00
    80  7.9000000000000D-01 -7.6531552372550D-01  1.4813412600233D+00
    81  8.0000000000000D-01 -7.8166460649743D-01  1.4394132128700D+00
    82  8.1000000000000D-01 -7.9334115746684D-01  1.3922575378348D+00
    83  8.2000000000000D-01 -8.0033924154787D-01  1.3399492699044D+00
    84  8.3000000000000D-01 -8.0268543771798D-01  1.2826095755077D+00
    85  8.4000000000000D-01 -8.0043931180765D-01  1.2204068067291D+00
    86  8.5000000000000D-01 -7.9369355535679D-01  1.1535569858565D+00
    87  8.6000000000000D-01 -7.8257377747529D-01  1.0823236916884D+00
    88  8.7000000000000D-01 -7.6723794104789D-01  1.0070173271263D+00
    89  8.8000000000000D-01 -7.4787543928908D-01  9.2799375623023D-01
    90  8.9000000000000D-01 -7.2470581347996D-01  8.4565230792483D-01
    91  9.0000000000000D-01 -6.9797711768944D-01  7.6043315287199D-01
    92  9.1000000000000D-01 -6.6796394126927D-01  6.7281406944081D-01
    93  9.2000000000000D-01 -6.3496510487492D-01  5.8330662411610D-01
    94  9.3000000000000D-01 -5.9930105061524D-01  4.9245180093162D-01
    95  9.4000000000000D-01 -5.6131095159606D-01  4.0081512344206D-01
    96  9.5000000000000D-01 -5.2134957052421D-01  3.0898132121740D-01
    97  9.6000000000000D-01 -4.7978390110463D-01  2.1754860071191D-01
    98  9.7000000000000D-01 -4.3698962962724D-01  1.2712258749422D-01
    99  9.8000000000000D-01 -3.9334745733720D-01  3.8310013098011D-02
   100  9.9000000000000D-01 -3.4923932686350D-01 -4.8287774930170D-02
   101  1.0000000000000D+00 -3.0504459806298D-01 -1.3208139701495D-01
   102  1.0100000000000D+00 -2.6113622013382D-01 -2.1250003370583D-01
   103  1.0200000000000D+00 -2.1787694770379D-01 -2.8899793825187D-01
   104  1.0300000000000D+00 -1.7561564873239D-01 -3.6106078133717D-01
   105  1.0400000000000D+00 -1.3468375156650D-01 -4.2821174039928D-01
   106  1.0500000000000D+00 -9.5391877244294D-02 -4.9001724805394D-01
   107  1.0600000000000D+00 -5.8026701221973D-02 -5.4609231754718D-01
   108  1.0700000000000D+00 -2.2848086313364D-02 -5.9610536744809D-01
   109  1.0800000000000D+00  9.9134748417867D-03 -6.3978247414975D-01
   110  1.0900000000000D+00  4.0059073019691D-02 -6.7691098730024D-01
   111  1.1000000000000D+00  6.7423221245886D-02 -7.0734245189487D-01
   112  1.1100000000000D+00  9.1875293536387D-02 -7.3099478902129D-01
   113  1.1200000000000D+00  1.1332054331322D-01 -7.4785369743195D-01
   114  1.1300000000000D+00  1.3170068704997D-01 -7.5797324897617D-01
   115  1.1400000000000D+00  1.4699404452502D-01 -7.6147566186807D-01
   116  1.1500000000000D+00  1.5921523294047D-01 -7.5855024683824D-01
   117  1.1600000000000D+00  1.6841441812688D-01 -7.4945153245687D-01
   118  1.1700000000000D+00  1.7467613306301D-01 -7.3449658916023D-01
   119  1.1800000000000D+00  1.7811767975981D-01 -7.1406158252459D-01
   120  1.1900000000000D+00  1.7888713539891D-01 -6.8857759549166D-01
   121  1.2000000000000D+00  1.7716099073089D-01 -6.5852577273034D-01
   122  1.2100000000000D+00  1.7314145367928D-01 -6.2443184969495D-01
   123  1.2200000000000D+00  1.6705345567543D-01 -5.8686013762584D-01
   124  1.2300000000000D+00  1.5914140198457D-01 -5.4640704282644D-01
   125  1.2400000000000D+00  1.4966571298377D-01 -5.0369420937542D-01
   126  1.2500000000000D+00  1.3889920498409D-01 -4.5936137751958D-01
   127  1.2600000000000D+00  1.2712336163476D-01 -4.1405905472199D-01
   128  1.2700000000000D+00  1.1462455284571D-01 -3.6844110802717D-01
   129  1.2800000000000D+00  1.0169025705775D-01 -3.2315738359470D-01
   130  1.2900000000000D+00  8.8605227435908D-02 -2.7884621812495D-01
   131  1.3000000000000D+00  7.5647960935621D-02 -2.3612758168000D-01
   132  1.3100000000000D+00  6.3087816119620D-02 -1.9559760663389D-01
   133  1.3200000000000D+00  5.1178074149113D-02 -1.5781438076396D-01
   134  1.3300000000000D+00  4.0149408934620D-02 -1.2328469919289D-01
   135  1.3400000000000D+00  3.0203150679198D-02 -9.2450469513012D-02
   136  1.3500000000000D+00  2.1508644270190D-02 -6.5683836457495D-02
   137  1.3600000000000D+00  1.4205916289231D-02 -4.3297710731857D-02
   138  1.3700000000000D+00  8.3778262773120D-03 -2.5463522612013D-02
   139  1.3800000000000D+00  4.0794195589015D-03 -1.2303361897928D-02
   140  1.3900000000000D+00  1.4795650592981D-03 -4.3048537131556D-03
   141  1.4000000000000D+00  3.5323389904484D-04 -8.3362368865514D-04
   142  1.4100000000000D+00  2.5904354898733D-05  5.7963943692226D-05
   143  1.4200000000000D+00  8.8390291852401D-07 -8.0099233683590D-06
   144  1.4300000000000D+00  8.1987333596369D-06 -4.6625956301934D-05
   145  1.4400000000000D+00 -2.3748933875170D-07  4.8470059860880D-06
   146  1.4500000000000D+00 -4.2806936901616D-07  4.4781197654607D-06
   147  1.4600000000000D+00 -6.1683284264515D-07  1.2472185001260D-06
   148  1.4700000000000D+00 -1.0624314442939D-07  2.1482062251365D-07
   149  1.4800000000000D+00  0.0000000000000D+00  0.0000000000000D+00
   150  1.4900000000000D+00  0.0000000000000D+00  0.0000000000000D+00
   151  1.5000000000000D+00  0.0000000000000D+00  0.0000000000000D+00
   152  1.5100000000000D+00  0.0000000000000D+00  0.0000000000000D+00
   153  1.5200000000000D+00  0.0000000000000D+00  0.0000000000000D+00
   154  1.5300000000000D+00  0.0000000000000D+00  0.0000000000000D+00
   155  1.5400000000000D+00  0.0000000000000D+00  0.0000000000000D+00
   156  1.5500000000000D+00  0.0000000000000D+00  0.0000000000000D+00
   157  1.5600000000000D+00  0.0000000000000D+00  0.0000000000000D+00
   158  1.5700000000000D+00  0.0000000000000D+00  0.0000000000000D+00
   159  1.5800000000000D+00  0.0000000000000D+00  0.0000000000000D+00
   160  1.5900000000000D+00  0.0000000000000D+00  0.0000000000000D+00
   161  1.6000000000000D+00  0.0000000000000D+00  0.0000000000000D+00
   162  1.6100000000000D+00  0.0000000000000D+00  0.0000000000000D+00
   163  1.6200000000000D+00  0.0000000000000D+00  0.0000000000000D+00
   164  1.6300000000000D+00  0.0000000000000D+00  0.0000000000000D+00
   165  1.6400000000000D+00  0.0000000000000D+00  0.0000000000000D+00
   166  1.6500000000000D+00  0.0000000000000D+00  0.0000000000000D+00
   167  1.6600000000000D+00  0.0000000000000D+00  0.0000000000000D+00
   168  1.6700000000000D+00  0.0000000000000D+00  0.0000000000000D+00
   169  1.6800000000000D+00  0.0000000000000D+00  0.0000000000000D+00
   170  1.6900000000000D+00  0.0000000000000D+00  0.0000000000000D+00
   171  1.7000000000000D+00  0.0000000000000D+00  0.0000000000000D+00
   172  1.7100000000000D+00  0.0000000000000D+00  0.0000000000000D+00
   173  1.7200000000000D+00  0.0000000000000D+00  0.0000000000000D+00
   174  1.7300000000000D+00  0.0000000000000D+00  0.0000000000000D+00
   175  1.7400000000000D+00  0.0000000000000D+00  0.0000000000000D+00
   176  1.7500000000000D+00  0.0000000000000D+00  0.0000000000000D+00
   177  1.7600000000000D+00  0.0000000000000D+00  0.0000000000000D+00
   178  1.7700000000000D+00  0.0000000000000D+00  0.0000000000000D+00
   179  1.7800000000000D+00  0.0000000000000D+00  0.0000000000000D+00
   180  1.7900000000000D+00  0.0000000000000D+00  0.0000000000000D+00
   181  1.8000000000000D+00  0.0000000000000D+00  0.0000000000000D+00
   182  1.8100000000000D+00  0.0000000000000D+00  0.0000000000000D+00
   183  1.8200000000000D+00  0.0000000000000D+00  0.0000000000000D+00
   184  1.8300000000000D+00  0.0000000000000D+00  0.0000000000000D+00
   185  1.8400000000000D+00  0.0000000000000D+00  0.0000000000000D+00
   186  1.8500000000000D+00  0.0000000000000D+00  0.0000000000000D+00
   187  1.8600000000000D+00  0.0000000000000D+00  0.0000000000000D+00
   188  1.8700000000000D+00  0.0000000000000D+00  0.0000000000000D+00
   189  1.8800000000000D+00  0.0000000000000D+00  0.0000000000000D+00
   190  1.8900000000000D+00  0.0000000000000D+00  0.0000000000000D+00
   191  1.9000000000000D+00  0.0000000000000D+00  0.0000000000000D+00
   192  1.9100000000000D+00  0.0000000000000D+00  0.0000000000000D+00
   193  1.9200000000000D+00  0.0000000000000D+00  0.0000000000000D+00
   194  1.9300000000000D+00  0.0000000000000D+00  0.0000000000000D+00
   195  1.9400000000000D+00  0.0000000000000D+00  0.0000000000000D+00
   196  1.9500000000000D+00  0.0000000000000D+00  0.0000000000000D+00
   197  1.9600000000000D+00  0.0000000000000D+00  0.0000000000000D+00
   198  1.9700000000000D+00  0.0000000000000D+00  0.0000000000000D+00
   199  1.9800000000000D+00  0.0000000000000D+00  0.0000000000000D+00
   200  1.9900000000000D+00  0.0000000000000D+00  0.0000000000000D+00
   201  2.0000000000000D+00  0.0000000000000D+00  0.0000000000000D+00
   202  2.0100000000000D+00  0.0000000000000D+00  0.0000000000000D+00
   203  2.0200000000000D+00  0.0000000000000D+00  0.0000000000000D+00
   204  2.0300000000000D+00  0.0000000000000D+00  0.0000000000000D+00
   205  2.0400000000000D+00  0.0000000000000D+00  0.0000000000000D+00
   206  2.0500000000000D+00  0.0000000000000D+00  0.0000000000000D+00
   207  2.0600000000000D+00  0.0000000000000D+00  0.0000000000000D+00
   208  2.0700000000000D+00  0.0000000000000D+00  0.0000000000000D+00
   209  2.0800000000000D+00  0.0000000000000D+00  0.0000000000000D+00
   210  2.0900000000000D+00  0.0000000000000D+00  0.0000000000000D+00
   211  2.1000000000000D+00  0.0000000000000D+00  0.0000000000000D+00
   212  2.1100000000000D+00  0.0000000000000D+00  0.0000000000000D+00
   213  2.1200000000000D+00  0.0000000000000D+00  0.0000000000000D+00
   214  2.1300000000000D+00  0.0000000000000D+00  0.0000000000000D+00
   215  2.1400000000000D+00  0.0000000000000D+00  0.0000000000000D+00
   216  2.1500000000000D+00  0.0000000000000D+00  0.0000000000000D+00
   217  2.1600000000000D+00  0.0000000000000D+00  0.0000000000000D+00
   218  2.1700000000000D+00  0.0000000000000D+00  0.0000000000000D+00
   219  2.1800000000000D+00  0.0000000000000D+00  0.0000000000000D+00
   220  2.1900000000000D+00  0.0000000000000D+00  0.0000000000000D+00
   221  2.2000000000000D+00  0.0000000000000D+00  0.0000000000000D+00
   222  2.2100000000000D+00  0.0000000000000D+00  0.0000000000000D+00
   223  2.2200000000000D+00  0.0000000000000D+00  0.0000000000000D+00
   224  2.2300000000000D+00  0.0000000000000D+00  0.0000000000000D+00
   225  2.2400000000000D+00  0.0000000000000D+00  0.0000000000000D+00
   226  2.2500000000000D+00  0.0000000000000D+00  0.0000000000000D+00
   227  2.2600000000000D+00  0.0000000000000D+00  0.0000000000000D+00
   228  2.2700000000000D+00  0.0000000000000D+00  0.0000000000000D+00
   229  2.2800000000000D+00  0.0000000000000D+00  0.0000000000000D+00
   230  2.2900000000000D+00  0.0000000000000D+00  0.0000000000000D+00
   231  2.3000000000000D+00  0.0000000000000D+00  0.0000000000000D+00
   232  2.3100000000000D+00  0.0000000000000D+00  0.0000000000000D+00
   233  2.3200000000000D+00  0.0000000000000D+00  0.0000000000000D+00
   234  2.3300000000000D+00  0.0000000000000D+00  0.0000000000000D+00
   235  2.3400000000000D+00  0.0000000000000D+00  0.0000000000000D+00
   236  2.3500000000000D+00  0.0000000000000D+00  0.0000000000000D+00
   237  2.3600000000000D+00  0.0000000000000D+00  0.0000000000000D+00
   238  2.3700000000000D+00  0.0000000000000D+00  0.0000000000000D+00
   239  2.3800000000000D+00  0.0000000000000D+00  0.0000000000000D+00
   240  2.3900000000000D+00  0.0000000000000D+00  0.0000000000000D+00
   241  2.4000000000000D+00  0.0000000000000D+00  0.0000000000000D+00
   242  2.4100000000000D+00  0.0000000000000D+00  0.0000000000000D+00
   243  2.4200000000000D+00  0.0000000000000D+00  0.0000000000000D+00
   244  2.4300000000000D+00  0.0000000000000D+00  0.0000000000000D+00
   245  2.4400000000000D+00  0.0000000000000D+00  0.0000000000000D+00
   246  2.4500000000000D+00  0.0000000000000D+00  0.0000000000000D+00
   247  2.4600000000000D+00  0.0000000000000D+00  0.0000000000000D+00
   248  2.4700000000000D+00  0.0000000000000D+00  0.0000000000000D+00
   249  2.4800000000000D+00  0.0000000000000D+00  0.0000000000000D+00
   250  2.4900000000000D+00  0.0000000000000D+00  0.0000000000000D+00
   251  2.5000000000000D+00  0.0000000000000D+00  0.0000000000000D+00
   252  2.5100000000000D+00  0.0000000000000D+00  0.0000000000000D+00
   253  2.5200000000000D+00  0.0000000000000D+00  0.0000000000000D+00
   254  2.5300000000000D+00  0.0000000000000D+00  0.0000000000000D+00
   255  2.5400000000000D+00  0.0000000000000D+00  0.0000000000000D+00
   256  2.5500000000000D+00  0.0000000000000D+00  0.0000000000000D+00
   257  2.5600000000000D+00  0.0000000000000D+00  0.0000000000000D+00
   258  2.5700000000000D+00  0.0000000000000D+00  0.0000000000000D+00
   259  2.5800000000000D+00  0.0000000000000D+00  0.0000000000000D+00
   260  2.5900000000000D+00  0.0000000000000D+00  0.0000000000000D+00
   261  2.6000000000000D+00  0.0000000000000D+00  0.0000000000000D+00
   262  2.6100000000000D+00  0.0000000000000D+00  0.0000000000000D+00
   263  2.6200000000000D+00  0.0000000000000D+00  0.0000000000000D+00
   264  2.6300000000000D+00  0.0000000000000D+00  0.0000000000000D+00
   265  2.6400000000000D+00  0.0000000000000D+00  0.0000000000000D+00
   266  2.6500000000000D+00  0.0000000000000D+00  0.0000000000000D+00
   267  2.6600000000000D+00  0.0000000000000D+00  0.0000000000000D+00
   268  2.6700000000000D+00  0.0000000000000D+00  0.0000000000000D+00
   269  2.6800000000000D+00  0.0000000000000D+00  0.0000000000000D+00
   270  2.6900000000000D+00  0.0000000000000D+00  0.0000000000000D+00
   271  2.7000000000000D+00  0.0000000000000D+00  0.0000000000000D+00
   272  2.7100000000000D+00  0.0000000000000D+00  0.0000000000000D+00
   273  2.7200000000000D+00  0.0000000000000D+00  0.0000000000000D+00
   274  2.7300000000000D+00  0.0000000000000D+00  0.0000000000000D+00
   275  2.7400000000000D+00  0.0000000000000D+00  0.0000000000000D+00
   276  2.7500000000000D+00  0.0000000000000D+00  0.0000000000000D+00
   277  2.7600000000000D+00  0.0000000000000D+00  0.0000000000000D+00
   278  2.7700000000000D+00  0.0000000000000D+00  0.0000000000000D+00
   279  2.7800000000000D+00  0.0000000000000D+00  0.0000000000000D+00
   280  2.7900000000000D+00  0.0000000000000D+00  0.0000000000000D+00
   281  2.8000000000000D+00  0.0000000000000D+00  0.0000000000000D+00
   282  2.8100000000000D+00  0.0000000000000D+00  0.0000000000000D+00
   283  2.8200000000000D+00  0.0000000000000D+00  0.0000000000000D+00
   284  2.8300000000000D+00  0.0000000000000D+00  0.0000000000000D+00
   285  2.8400000000000D+00  0.0000000000000D+00  0.0000000000000D+00
   286  2.8500000000000D+00  0.0000000000000D+00  0.0000000000000D+00
   287  2.8600000000000D+00  0.0000000000000D+00  0.0000000000000D+00
   288  2.8700000000000D+00  0.0000000000000D+00  0.0000000000000D+00
   289  2.8800000000000D+00  0.0000000000000D+00  0.0000000000000D+00
   290  2.8900000000000D+00  0.0000000000000D+00  0.0000000000000D+00
   291  2.9000000000000D+00  0.0000000000000D+00  0.0000000000000D+00
   292  2.9100000000000D+00  0.0000000000000D+00  0.0000000000000D+00
   293  2.9200000000000D+00  0.0000000000000D+00  0.0000000000000D+00
   294  2.9300000000000D+00  0.0000000000000D+00  0.0000000000000D+00
   295  2.9400000000000D+00  0.0000000000000D+00  0.0000000000000D+00
   296  2.9500000000000D+00  0.0000000000000D+00  0.0000000000000D+00
   297  2.9600000000000D+00  0.0000000000000D+00  0.0000000000000D+00
   298  2.9700000000000D+00  0.0000000000000D+00  0.0000000000000D+00
   299  2.9800000000000D+00  0.0000000000000D+00  0.0000000000000D+00
   300  2.9900000000000D+00  0.0000000000000D+00  0.0000000000000D+00
   301  3.0000000000000D+00  0.0000000000000D+00  0.0000000000000D+00
   302  3.0100000000000D+00  0.0000000000000D+00  0.0000000000000D+00
   303  3.0200000000000D+00  0.0000000000000D+00  0.0000000000000D+00
   304  3.0300000000000D+00  0.0000000000000D+00  0.0000000000000D+00
   305  3.0400000000000D+00  0.0000000000000D+00  0.0000000000000D+00
   306  3.0500000000000D+00  0.0000000000000D+00  0.0000000000000D+00
   307  3.0600000000000D+00  0.0000000000000D+00  0.0000000000000D+00
   308  3.0700000000000D+00  0.0000000000000D+00  0.0000000000000D+00
   309  3.0800000000000D+00  0.0000000000000D+00  0.0000000000000D+00
   310  3.0900000000000D+00  0.0000000000000D+00  0.0000000000000D+00
   311  3.1000000000000D+00  0.0000000000000D+00  0.0000000000000D+00
   312  3.1100000000000D+00  0.0000000000000D+00  0.0000000000000D+00
   313  3.1200000000000D+00  0.0000000000000D+00  0.0000000000000D+00
   314  3.1300000000000D+00  0.0000000000000D+00  0.0000000000000D+00
   315  3.1400000000000D+00  0.0000000000000D+00  0.0000000000000D+00
   316  3.1500000000000D+00  0.0000000000000D+00  0.0000000000000D+00
   317  3.1600000000000D+00  0.0000000000000D+00  0.0000000000000D+00
   318  3.1700000000000D+00  0.0000000000000D+00  0.0000000000000D+00
   319  3.1800000000000D+00  0.0000000000000D+00  0.0000000000000D+00
   320  3.1900000000000D+00  0.0000000000000D+00  0.0000000000000D+00
   321  3.2000000000000D+00  0.0000000000000D+00  0.0000000000000D+00
   322  3.2100000000000D+00  0.0000000000000D+00  0.0000000000000D+00
   323  3.2200000000000D+00  0.0000000000000D+00  0.0000000000000D+00
   324  3.2300000000000D+00  0.0000000000000D+00  0.0000000000000D+00
   325  3.2400000000000D+00  0.0000000000000D+00  0.0000000000000D+00
   326  3.2500000000000D+00  0.0000000000000D+00  0.0000000000000D+00
   327  3.2600000000000D+00  0.0000000000000D+00  0.0000000000000D+00
   328  3.2700000000000D+00  0.0000000000000D+00  0.0000000000000D+00
   329  3.2800000000000D+00  0.0000000000000D+00  0.0000000000000D+00
   330  3.2900000000000D+00  0.0000000000000D+00  0.0000000000000D+00
   331  3.3000000000000D+00  0.0000000000000D+00  0.0000000000000D+00
   332  3.3100000000000D+00  0.0000000000000D+00  0.0000000000000D+00
   333  3.3200000000000D+00  0.0000000000000D+00  0.0000000000000D+00
   334  3.3300000000000D+00  0.0000000000000D+00  0.0000000000000D+00
   335  3.3400000000000D+00  0.0000000000000D+00  0.0000000000000D+00
   336  3.3500000000000D+00  0.0000000000000D+00  0.0000000000000D+00
   337  3.3600000000000D+00  0.0000000000000D+00  0.0000000000000D+00
   338  3.3700000000000D+00  0.0000000000000D+00  0.0000000000000D+00
   339  3.3800000000000D+00  0.0000000000000D+00  0.0000000000000D+00
   340  3.3900000000000D+00  0.0000000000000D+00  0.0000000000000D+00
   341  3.4000000000000D+00  0.0000000000000D+00  0.0000000000000D+00
   342  3.4100000000000D+00  0.0000000000000D+00  0.0000000000000D+00
   343  3.4200000000000D+00  0.0000000000000D+00  0.0000000000000D+00
   344  3.4300000000000D+00  0.0000000000000D+00  0.0000000000000D+00
   345  3.4400000000000D+00  0.0000000000000D+00  0.0000000000000D+00
   346  3.4500000000000D+00  0.0000000000000D+00  0.0000000000000D+00
   347  3.4600000000000D+00  0.0000000000000D+00  0.0000000000000D+00
   348  3.4700000000000D+00  0.0000000000000D+00  0.0000000000000D+00
   349  3.4800000000000D+00  0.0000000000000D+00  0.0000000000000D+00
   350  3.4900000000000D+00  0.0000000000000D+00  0.0000000000000D+00
   351  3.5000000000000D+00  0.0000000000000D+00  0.0000000000000D+00
   352  3.5100000000000D+00  0.0000000000000D+00  0.0000000000000D+00
   353  3.5200000000000D+00  0.0000000000000D+00  0.0000000000000D+00
   354  3.5300000000000D+00  0.0000000000000D+00  0.0000000000000D+00
   355  3.5400000000000D+00  0.0000000000000D+00  0.0000000000000D+00
   356  3.5500000000000D+00  0.0000000000000D+00  0.0000000000000D+00
   357  3.5600000000000D+00  0.0000000000000D+00  0.0000000000000D+00
   358  3.5700000000000D+00  0.0000000000000D+00  0.0000000000000D+00
   359  3.5800000000000D+00  0.0000000000000D+00  0.0000000000000D+00
   360  3.5900000000000D+00  0.0000000000000D+00  0.0000000000000D+00
   361  3.6000000000000D+00  0.0000000000000D+00  0.0000000000000D+00
   362  3.6100000000000D+00  0.0000000000000D+00  0.0000000000000D+00
   363  3.6200000000000D+00  0.0000000000000D+00  0.0000000000000D+00
   364  3.6300000000000D+00  0.0000000000000D+00  0.0000000000000D+00
   365  3.6400000000000D+00  0.0000000000000D+00  0.0000000000000D+00
   366  3.6500000000000D+00  0.0000000000000D+00  0.0000000000000D+00
   367  3.6600000000000D+00  0.0000000000000D+00  0.0000000000000D+00
   368  3.6700000000000D+00  0.0000000000000D+00  0.0000000000000D+00
   369  3.6800000000000D+00  0.0000000000000D+00  0.0000000000000D+00
   370  3.6900000000000D+00  0.0000000000000D+00  0.0000000000000D+00
   371  3.7000000000000D+00  0.0000000000000D+00  0.0000000000000D+00
   372  3.7100000000000D+00  0.0000000000000D+00  0.0000000000000D+00
   373  3.7200000000000D+00  0.0000000000000D+00  0.0000000000000D+00
   374  3.7300000000000D+00  0.0000000000000D+00  0.0000000000000D+00
   375  3.7400000000000D+00  0.0000000000000D+00  0.0000000000000D+00
   376  3.7500000000000D+00  0.0000000000000D+00  0.0000000000000D+00
   377  3.7600000000000D+00  0.0000000000000D+00  0.0000000000000D+00
   378  3.7700000000000D+00  0.0000000000000D+00  0.0000000000000D+00
   379  3.7800000000000D+00  0.0000000000000D+00  0.0000000000000D+00
   380  3.7900000000000D+00  0.0000000000000D+00  0.0000000000000D+00
   381  3.8000000000000D+00  0.0000000000000D+00  0.0000000000000D+00
   382  3.8100000000000D+00  0.0000000000000D+00  0.0000000000000D+00
   383  3.8200000000000D+00  0.0000000000000D+00  0.0000000000000D+00
   384  3.8300000000000D+00  0.0000000000000D+00  0.0000000000000D+00
   385  3.8400000000000D+00  0.0000000000000D+00  0.0000000000000D+00
   386  3.8500000000000D+00  0.0000000000000D+00  0.0000000000000D+00
   387  3.8600000000000D+00  0.0000000000000D+00  0.0000000000000D+00
   388  3.8700000000000D+00  0.0000000000000D+00  0.0000000000000D+00
   389  3.8800000000000D+00  0.0000000000000D+00  0.0000000000000D+00
   390  3.8900000000000D+00  0.0000000000000D+00  0.0000000000000D+00
   391  3.9000000000000D+00  0.0000000000000D+00  0.0000000000000D+00
   392  3.9100000000000D+00  0.0000000000000D+00  0.0000000000000D+00
   393  3.9200000000000D+00  0.0000000000000D+00  0.0000000000000D+00
   394  3.9300000000000D+00  0.0000000000000D+00  0.0000000000000D+00
   395  3.9400000000000D+00  0.0000000000000D+00  0.0000000000000D+00
   396  3.9500000000000D+00  0.0000000000000D+00  0.0000000000000D+00
   397  3.9600000000000D+00  0.0000000000000D+00  0.0000000000000D+00
   398  3.9700000000000D+00  0.0000000000000D+00  0.0000000000000D+00
   399  3.9800000000000D+00  0.0000000000000D+00  0.0000000000000D+00
   400  3.9900000000000D+00  0.0000000000000D+00  0.0000000000000D+00
   401  4.0000000000000D+00  0.0000000000000D+00  0.0000000000000D+00
   402  4.0100000000000D+00  0.0000000000000D+00  0.0000000000000D+00
   403  4.0200000000000D+00  0.0000000000000D+00  0.0000000000000D+00
   404  4.0300000000000D+00  0.0000000000000D+00  0.0000000000000D+00
   405  4.0400000000000D+00  0.0000000000000D+00  0.0000000000000D+00
   406  4.0500000000000D+00  0.0000000000000D+00  0.0000000000000D+00
   407  4.0600000000000D+00  0.0000000000000D+00  0.0000000000000D+00
   408  4.0700000000000D+00  0.0000000000000D+00  0.0000000000000D+00
   409  4.0800000000000D+00  0.0000000000000D+00  0.0000000000000D+00
   410  4.0900000000000D+00  0.0000000000000D+00  0.0000000000000D+00
   411  4.1000000000000D+00  0.0000000000000D+00  0.0000000000000D+00
   412  4.1100000000000D+00  0.0000000000000D+00  0.0000000000000D+00
   413  4.1200000000000D+00  0.0000000000000D+00  0.0000000000000D+00
   414  4.1300000000000D+00  0.0000000000000D+00  0.0000000000000D+00
   415  4.1400000000000D+00  0.0000000000000D+00  0.0000000000000D+00
   416  4.1500000000000D+00  0.0000000000000D+00  0.0000000000000D+00
   417  4.1600000000000D+00  0.0000000000000D+00  0.0000000000000D+00
   418  4.1700000000000D+00  0.0000000000000D+00  0.0000000000000D+00
   419  4.1800000000000D+00  0.0000000000000D+00  0.0000000000000D+00
   420  4.1900000000000D+00  0.0000000000000D+00  0.0000000000000D+00
   421  4.2000000000000D+00  0.0000000000000D+00  0.0000000000000D+00
   422  4.2100000000000D+00  0.0000000000000D+00  0.0000000000000D+00