Na    ONCVPSP-3.3.0  r_core=   1.20708   1.55069
     11.0000      9.0000      220408    zatom,zion,pspd
     8       2   1     4   400     0    pspcod,pspxc,lmax,lloc,mmax,r2well
  3.99000000  0.00000000  0.00000000    rchrg fchrg qchrg
     2     2     0     0     0    nproj
     1     1           extension_switch
   0                         2.6648413072183D+00 -6.7708453638345D-01
     1  0.0000000000000D+00  2.4854818203579D-09  5.5669080456511D-10
     2  1.0000000000000D-02  9.3449503989696D-02  2.1102100783308D-02
     3  2.0000000000000D-02  1.8667185030750D-01  4.2284628400982D-02
     4  3.0000000000000D-02  2.7943864600321D-01  6.3627020386714D-02
     5  4.0000000000000D-02  3.7151906596750D-01  8.5206747117728D-02
     6  5.0000000000000D-02  4.6267873220134D-01  1.0709835670498D-01
     7  6.0000000000000D-02  5.5267870570822D-01  1.2937255364468D-01
     8  7.0000000000000D-02  6.4127462558485D-01  1.5209532182251D-01
     9  8.0000000000000D-02  7.2821602740093D-01  1.7532710190532D-01
    10  9.0000000000000D-02  8.1324586992022D-01  1.9912203247282D-01
    11  1.0000000000000D-01  8.9610029567043D-01  2.2352726344320D-01
    12  1.1000000000000D-01  9.7650864686824D-01  2.4858234944165D-01
    13  1.2000000000000D-01  1.0541937538093D+00  2.7431872976129D-01
    14  1.3000000000000D-01  1.1288725081044D+00  3.0075930048542D-01
    15  1.4000000000000D-01  1.2002567281548D+00  3.2791808319167D-01
    16  1.5000000000000D-01  1.2680543190827D+00  3.5579999345813D-01
    17  1.6000000000000D-01  1.3319707240495D+00  3.8440071115392D-01
    18  1.7000000000000D-01  1.3917106585788D+00  4.1370665323871D-01
    19  1.8000000000000D-01  1.4469801142386D+00  4.4369504853300D-01
    20  1.9000000000000D-01  1.4974886129025D+00  4.7433411267032D-01
    21  2.0000000000000D-01  1.5429516878887D+00  5.0558332022031D-01
    22  2.1000000000000D-01  1.5830935636383D+00  5.3739376979354D-01
    23  2.2000000000000D-01  1.6176500013138D+00  5.6970863681992D-01
    24  2.3000000000000D-01  1.6463712738525D+00  6.0246370764789D-01
    25  2.4000000000000D-01  1.6690252306440D+00  6.3558798765382D-01
    26  2.5000000000000D-01  1.6854004091877D+00  6.6900437519365D-01
    27  2.6000000000000D-01  1.6953091488649D+00  7.0263039248131D-01
    28  2.7000000000000D-01  1.6985906603734D+00  7.3637896385221D-01
    29  2.8000000000000D-01  1.6951140034551D+00  7.7015923137144D-01
    30  2.9000000000000D-01  1.6847809253155D+00  8.0387739738218D-01
    31  3.0000000000000D-01  1.6675285126081D+00  8.3743758336539D-01
    32  3.1000000000000D-01  1.6433316110375D+00  8.7074269439768D-01
    33  3.2000000000000D-01  1.6122049685077D+00  9.0369527855345D-01
    34  3.3000000000000D-01  1.5742050603070D+00  9.3619837079716D-01
    35  3.4000000000000D-01  1.5294315580312D+00  9.6815631124888D-01
    36  3.5000000000000D-01  1.4780284077808D+00  9.9947552817757D-01
    37  3.6000000000000D-01  1.4201844875751D+00  1.0300652766726D+00
    38  3.7000000000000D-01  1.3561338188481D+00  1.0598383246594D+00
    39  3.8000000000000D-01  1.2861553122750D+00  1.0887115787469D+00
    40  3.9000000000000D-01  1.2105720339441D+00  1.1166066433136D+00
    41  4.0000000000000D-01  1.1297499839725D+00  1.1434503072397D+00
    42  4.1000000000000D-01  1.0440963859716D+00  1.1691749537667D+00
    43  4.2000000000000D-01  9.5405749222895D-01  1.1937188900892D+00
    44  4.3000000000000D-01  8.6011591598712D-01  1.2170265944493D+00
    45  4.4000000000000D-01  7.6278750868241D-01  1.2390488796937D+00
    46  4.5000000000000D-01  6.6261780636899D-01  1.2597429734438D+00
    47  4.6000000000000D-01  5.6017807570043D-01  1.2790725162156D+00
    48  4.7000000000000D-01  4.5606099568904D-01  1.2970074799818D+00
    49  4.8000000000000D-01  3.5087601692516D-01  1.3135240107815D+00
    50  4.9000000000000D-01  2.4524444493460D-01  1.3286042000395D+00
    51  5.0000000000000D-01  1.3979429880687D-01  1.3422357902374D+00
    52  5.1000000000000D-01  3.5155000072271D-02  1.3544118214759D+00
    53  5.2000000000000D-01 -6.8048050019681D-02  1.3651302262618D+00
    54  5.3000000000000D-01 -1.6919894421734D-01  1.3743933805384D+00
    55  5.4000000000000D-01 -2.6769673168919D-01  1.3822076195431D+00
    56  5.5000000000000D-01 -3.6296080597600D-01  1.3885827275124D+00
    57  5.6000000000000D-01 -4.5443615522938D-01  1.3935314105581D+00
    58  5.7000000000000D-01 -5.4159841226312D-01  1.3970687621980D+00
    59  5.8000000000000D-01 -6.2395864353757D-01  1.3992117310537D+00
    60  5.9000000000000D-01 -7.0106781862385D-01  1.3999786001025D+00
    61  6.0000000000000D-01 -7.7252090490059D-01  1.3993884866175D+00
    62  6.1000000000000D-01 -8.3796053623488D-01  1.3974608715322D+00
    63  6.2000000000000D-01 -8.9708020907257D-01  1.3942151664441D+00
    64  6.3000000000000D-01 -9.4962696475476D-01  1.3896703258213D+00
    65  6.4000000000000D-01 -9.9540352281824D-01  1.3838445112161D+00
    66  6.5000000000000D-01 -1.0342698365247D+00  1.3767548134270D+00
    67  6.6000000000000D-01 -1.0661440488084D+00  1.3684170375915D+00
    68  6.7000000000000D-01 -1.0910028340964D+00  1.3588455551632D+00
    69  6.8000000000000D-01 -1.1088811189985D+00  1.3480532256359D+00
    70  6.9000000000000D-01 -1.1198711825803D+00  1.3360513897310D+00
    71  7.0000000000000D-01 -1.1241211446859D+00  1.3228499346002D+00
    72  7.1000000000000D-01 -1.1218328584845D+00  1.3084574304134D+00
    73  7.2000000000000D-01 -1.1132592309876D+00  1.2928813365237D+00
    74  7.3000000000000D-01 -1.0987010026042D+00  1.2761282742447D+00
    75  7.4000000000000D-01 -1.0785030237485D+00  1.2582043621622D+00
    76  7.5000000000000D-01 -1.0530500730273D+00  1.2391156088389D+00
    77  7.6000000000000D-01 -1.0227622675107D+00  1.2188683567830D+00
    78  7.7000000000000D-01 -9.8809012090998D-01  1.1974697706489D+00
    79  7.8000000000000D-01 -9.4950931015176D-01  1.1749283618330D+00
    80  7.9000000000000D-01 -9.0751521468442D-01  1.1512545409376D+00
    81  8.0000000000000D-01 -8.6261729589843D-01  1.1264611890077D+00
    82  8.1000000000000D-01 -8.1533338620302D-01  1.1005642380104D+00
    83  8.2000000000000D-01 -7.6618395855176D-01  1.0735832507270D+00
    84  8.3000000000000D-01 -7.1568644752635D-01  1.0455419900780D+00
    85  8.4000000000000D-01 -6.6434969245869D-01  1.0164689678941D+00
    86  8.5000000000000D-01 -6.1266857150052D-01  9.8639796329109D-01
    87  8.6000000000000D-01 -5.6111889305149D-01  9.5536850109506D-01
    88  8.7000000000000D-01 -5.1015260755997D-01  9.2342628120264D-01
    89  8.8000000000000D-01 -4.6019339845585D-01  8.9062355033097D-01
    90  8.9000000000000D-01 -4.1163270591535D-01  8.5701940831977D-01
    91  9.0000000000000D-01 -3.6482623135687D-01  8.2268004197388D-01
    92  9.1000000000000D-01 -3.2009096410122D-01  7.8767888037286D-01
    93  9.2000000000000D-01 -2.7770276458204D-01  7.5209666661094D-01
    94  9.3000000000000D-01 -2.3789453095647D-01  7.1602144205001D-01
    95  9.4000000000000D-01 -2.0085496804305D-01  6.7954844035746D-01
    96  9.5000000000000D-01 -1.6672796932067D-01  6.4277988983831D-01
    97  9.6000000000000D-01 -1.3561261428038D-01  6.0582472385582D-01
    98  9.7000000000000D-01 -1.0756377512708D-01  5.6879820040365D-01
    99  9.8000000000000D-01 -8.2593318320674D-02  5.3182143320089D-01
   100  9.9000000000000D-01 -6.0671878283285D-02  4.9502083794272D-01
   101  1.0000000000000D+00 -4.1731172707294D-02  4.5852749856337D-01
   102  1.0100000000000D+00 -2.5666821352683D-02  4.2247645954371D-01
   103  1.0200000000000D+00 -1.2341623219571D-02  3.8700595138971D-01
   104  1.0300000000000D+00 -1.5892404584848D-03  3.5225655743158D-01
   105  1.0400000000000D+00  6.7817681196917D-03  3.1837033095863D-01
   106  1.0500000000000D+00  1.2983626310075D-02  2.8548987253165D-01
   107  1.0600000000000D+00  1.7244798945690D-02  2.5375737795104D-01
   108  1.0700000000000D+00  1.9805299101032D-02  2.2331366787072D-01
   109  1.0800000000000D+00  2.0911915991900D-02  1.9429721041936D-01
   110  1.0900000000000D+00  2.0813436726947D-02  1.6684314839003D-01
   111  1.1000000000000D+00  1.9755935556020D-02  1.4108234264259D-01
   112  1.1100000000000D+00  1.7978203408652D-02  1.1714044323376D-01
   113  1.1200000000000D+00  1.5707388910177D-02  9.5136999539824D-02
   114  1.1300000000000D+00  1.3154918983761D-02  7.5184620152809D-02
   115  1.1400000000000D+00  1.0512764621067D-02  5.7388192933443D-02
   116  1.1500000000000D+00  7.9501115990037D-03  4.1844174685548D-02
   117  1.1600000000000D+00  5.6104913370572D-03  2.8639959188938D-02
   118  1.1700000000000D+00  3.6107124613927D-03  1.7858579181521D-02
   119  1.1800000000000D+00  2.0298170562796D-03  9.5427560210806D-03
   120  1.1900000000000D+00  9.2740370187622D-04  3.7685809403273D-03
   121  1.2000000000000D+00  3.8115318911312D-04  7.4562266930804D-04
   122  1.2100000000000D+00  1.5887094150129D-04 -1.3701671082356D-04
   123  1.2200000000000D+00  1.4213986956922D-05 -3.3934207965363D-05
   124  1.2300000000000D+00 -1.3498301937267D-05  4.2400512057000D-05
   125  1.2400000000000D+00  3.0293747491658D-06 -6.5698179062969D-06
   126  1.2500000000000D+00  7.2774432009508D-07 -1.7542056865511D-06
   127  1.2600000000000D+00 -5.7105839989501D-07  9.1186311818555D-08
   128  1.2700000000000D+00  0.0000000000000D+00  0.0000000000000D+00
   129  1.2800000000000D+00  0.0000000000000D+00  0.0000000000000D+00
   130  1.2900000000000D+00  0.0000000000000D+00  0.0000000000000D+00
   131  1.3000000000000D+00  0.0000000000000D+00  0.0000000000000D+00
   132  1.3100000000000D+00  0.0000000000000D+00  0.0000000000000D+00
   133  1.3200000000000D+00  0.0000000000000D+00  0.0000000000000D+00
   134  1.3300000000000D+00  0.0000000000000D+00  0.0000000000000D+00
   135  1.3400000000000D+00  0.0000000000000D+00  0.0000000000000D+00
   136  1.3500000000000D+00  0.0000000000000D+00  0.0000000000000D+00
   137  1.3600000000000D+00  0.0000000000000D+00  0.0000000000000D+00
   138  1.3700000000000D+00  0.0000000000000D+00  0.0000000000000D+00
   139  1.3800000000000D+00  0.0000000000000D+00  0.0000000000000D+00
   140  1.3900000000000D+00  0.0000000000000D+00  0.0000000000000D+00
   141  1.4000000000000D+00  0.0000000000000D+00  0.0000000000000D+00
   142  1.4100000000000D+00  0.0000000000000D+00  0.0000000000000D+00
   143  1.4200000000000D+00  0.0000000000000D+00  0.0000000000000D+00
   144  1.4300000000000D+00  0.0000000000000D+00  0.0000000000000D+00
   145  1.4400000000000D+00  0.0000000000000D+00  0.0000000000000D+00
   146  1.4500000000000D+00  0.0000000000000D+00  0.0000000000000D+00
   147  1.4600000000000D+00  0.0000000000000D+00  0.0000000000000D+00
   148  1.4700000000000D+00  0.0000000000000D+00  0.0000000000000D+00
   149  1.4800000000000D+00  0.0000000000000D+00  0.0000000000000D+00
   150  1.4900000000000D+00  0.0000000000000D+00  0.0000000000000D+00
   151  1.5000000000000D+00  0.0000000000000D+00  0.0000000000000D+00
   152  1.5100000000000D+00  0.0000000000000D+00  0.0000000000000D+00
   153  1.5200000000000D+00  0.0000000000000D+00  0.0000000000000D+00
   154  1.5300000000000D+00  0.0000000000000D+00  0.0000000000000D+00
   155  1.5400000000000D+00  0.0000000000000D+00  0.0000000000000D+00
   156  1.5500000000000D+00  0.0000000000000D+00  0.0000000000000D+00
   157  1.5600000000000D+00  0.0000000000000D+00  0.0000000000000D+00
   158  1.5700000000000D+00  0.0000000000000D+00  0.0000000000000D+00
   159  1.5800000000000D+00  0.0000000000000D+00  0.0000000000000D+00
   160  1.5900000000000D+00  0.0000000000000D+00  0.0000000000000D+00
   161  1.6000000000000D+00  0.0000000000000D+00  0.0000000000000D+00
   162  1.6100000000000D+00  0.0000000000000D+00  0.0000000000000D+00
   163  1.6200000000000D+00  0.0000000000000D+00  0.0000000000000D+00
   164  1.6300000000000D+00  0.0000000000000D+00  0.0000000000000D+00
   165  1.6400000000000D+00  0.0000000000000D+00  0.0000000000000D+00
   166  1.6500000000000D+00  0.0000000000000D+00  0.0000000000000D+00
   167  1.6600000000000D+00  0.0000000000000D+00  0.0000000000000D+00
   168  1.6700000000000D+00  0.0000000000000D+00  0.0000000000000D+00
   169  1.6800000000000D+00  0.0000000000000D+00  0.0000000000000D+00
   170  1.6900000000000D+00  0.0000000000000D+00  0.0000000000000D+00
   171  1.7000000000000D+00  0.0000000000000D+00  0.0000000000000D+00
   172  1.7100000000000D+00  0.0000000000000D+00  0.0000000000000D+00
   173  1.7200000000000D+00  0.0000000000000D+00  0.0000000000000D+00
   174  1.7300000000000D+00  0.0000000000000D+00  0.0000000000000D+00
   175  1.7400000000000D+00  0.0000000000000D+00  0.0000000000000D+00
   176  1.7500000000000D+00  0.0000000000000D+00  0.0000000000000D+00
   177  1.7600000000000D+00  0.0000000000000D+00  0.0000000000000D+00
   178  1.7700000000000D+00  0.0000000000000D+00  0.0000000000000D+00
   179  1.7800000000000D+00  0.0000000000000D+00  0.0000000000000D+00
   180  1.7900000000000D+00  0.0000000000000D+00  0.0000000000000D+00
   181  1.8000000000000D+00  0.0000000000000D+00  0.0000000000000D+00
   182  1.8100000000000D+00  0.0000000000000D+00  0.0000000000000D+00
   183  1.8200000000000D+00  0.0000000000000D+00  0.0000000000000D+00
   184  1.8300000000000D+00  0.0000000000000D+00  0.0000000000000D+00
   185  1.8400000000000D+00  0.0000000000000D+00  0.0000000000000D+00
   186  1.8500000000000D+00  0.0000000000000D+00  0.0000000000000D+00
   187  1.8600000000000D+00  0.0000000000000D+00  0.0000000000000D+00
   188  1.8700000000000D+00  0.0000000000000D+00  0.0000000000000D+00
   189  1.8800000000000D+00  0.0000000000000D+00  0.0000000000000D+00
   190  1.8900000000000D+00  0.0000000000000D+00  0.0000000000000D+00
   191  1.9000000000000D+00  0.0000000000000D+00  0.0000000000000D+00
   192  1.9100000000000D+00  0.0000000000000D+00  0.0000000000000D+00
   193  1.9200000000000D+00  0.0000000000000D+00  0.0000000000000D+00
   194  1.9300000000000D+00  0.0000000000000D+00  0.0000000000000D+00
   195  1.9400000000000D+00  0.0000000000000D+00  0.0000000000000D+00
   196  1.9500000000000D+00  0.0000000000000D+00  0.0000000000000D+00
   197  1.9600000000000D+00  0.0000000000000D+00  0.0000000000000D+00
   198  1.9700000000000D+00  0.0000000000000D+00  0.0000000000000D+00
   199  1.9800000000000D+00  0.0000000000000D+00  0.0000000000000D+00
   200  1.9900000000000D+00  0.0000000000000D+00  0.0000000000000D+00
   201  2.0000000000000D+00  0.0000000000000D+00  0.0000000000000D+00
   202  2.0100000000000D+00  0.0000000000000D+00  0.0000000000000D+00
   203  2.0200000000000D+00  0.0000000000000D+00  0.0000000000000D+00
   204  2.0300000000000D+00  0.0000000000000D+00  0.0000000000000D+00
   205  2.0400000000000D+00  0.0000000000000D+00  0.0000000000000D+00
   206  2.0500000000000D+00  0.0000000000000D+00  0.0000000000000D+00
   207  2.0600000000000D+00  0.0000000000000D+00  0.0000000000000D+00
   208  2.0700000000000D+00  0.0000000000000D+00  0.0000000000000D+00
   209  2.0800000000000D+00  0.0000000000000D+00  0.0000000000000D+00
   210  2.0900000000000D+00  0.0000000000000D+00  0.0000000000000D+00
   211  2.1000000000000D+00  0.0000000000000D+00  0.0000000000000D+00
   212  2.1100000000000D+00  0.0000000000000D+00  0.0000000000000D+00
   213  2.1200000000000D+00  0.0000000000000D+00  0.0000000000000D+00
   214  2.1300000000000D+00  0.0000000000000D+00  0.0000000000000D+00
   215  2.1400000000000D+00  0.0000000000000D+00  0.0000000000000D+00
   216  2.1500000000000D+00  0.0000000000000D+00  0.0000000000000D+00
   217  2.1600000000000D+00  0.0000000000000D+00  0.0000000000000D+00
   218  2.1700000000000D+00  0.0000000000000D+00  0.0000000000000D+00
   219  2.1800000000000D+00  0.0000000000000D+00  0.0000000000000D+00
   220  2.1900000000000D+00  0.0000000000000D+00  0.0000000000000D+00
   221  2.2000000000000D+00  0.0000000000000D+00  0.0000000000000D+00
   222  2.2100000000000D+00  0.0000000000000D+00  0.0000000000000D+00
   223  2.2200000000000D+00  0.0000000000000D+00  0.0000000000000D+00
   224  2.2300000000000D+00  0.0000000000000D+00  0.0000000000000D+00
   225  2.2400000000000D+00  0.0000000000000D+00  0.0000000000000D+00
   226  2.2500000000000D+00  0.0000000000000D+00  0.0000000000000D+00
   227  2.2600000000000D+00  0.0000000000000D+00  0.0000000000000D+00
   228  2.2700000000000D+00  0.0000000000000D+00  0.0000000000000D+00
   229  2.2800000000000D+00  0.0000000000000D+00  0.0000000000000D+00
   230  2.2900000000000D+00  0.0000000000000D+00  0.0000000000000D+00
   231  2.3000000000000D+00  0.0000000000000D+00  0.0000000000000D+00
   232  2.3100000000000D+00  0.0000000000000D+00  0.0000000000000D+00
   233  2.3200000000000D+00  0.0000000000000D+00  0.0000000000000D+00
   234  2.3300000000000D+00  0.0000000000000D+00  0.0000000000000D+00
   235  2.3400000000000D+00  0.0000000000000D+00  0.0000000000000D+00
   236  2.3500000000000D+00  0.0000000000000D+00  0.0000000000000D+00
   237  2.3600000000000D+00  0.0000000000000D+00  0.0000000000000D+00
   238  2.3700000000000D+00  0.0000000000000D+00  0.0000000000000D+00
   239  2.3800000000000D+00  0.0000000000000D+00  0.0000000000000D+00
   240  2.3900000000000D+00  0.0000000000000D+00  0.0000000000000D+00
   241  2.4000000000000D+00  0.0000000000000D+00  0.0000000000000D+00
   242  2.4100000000000D+00  0.0000000000000D+00  0.0000000000000D+00
   243  2.4200000000000D+00  0.0000000000000D+00  0.0000000000000D+00
   244  2.4300000000000D+00  0.0000000000000D+00  0.0000000000000D+00
   245  2.4400000000000D+00  0.0000000000000D+00  0.0000000000000D+00
   246  2.4500000000000D+00  0.0000000000000D+00  0.0000000000000D+00
   247  2.4600000000000D+00  0.0000000000000D+00  0.0000000000000D+00
   248  2.4700000000000D+00  0.0000000000000D+00  0.0000000000000D+00
   249  2.4800000000000D+00  0.0000000000000D+00  0.0000000000000D+00
   250  2.4900000000000D+00  0.0000000000000D+00  0.0000000000000D+00
   251  2.5000000000000D+00  0.0000000000000D+00  0.0000000000000D+00
   252  2.5100000000000D+00  0.0000000000000D+00  0.0000000000000D+00
   253  2.5200000000000D+00  0.0000000000000D+00  0.0000000000000D+00
   254  2.5300000000000D+00  0.0000000000000D+00  0.0000000000000D+00
   255  2.5400000000000D+00  0.0000000000000D+00  0.0000000000000D+00
   256  2.5500000000000D+00  0.0000000000000D+00  0.0000000000000D+00
   257  2.5600000000000D+00  0.0000000000000D+00  0.0000000000000D+00
   258  2.5700000000000D+00  0.0000000000000D+00  0.0000000000000D+00
   259  2.5800000000000D+00  0.0000000000000D+00  0.0000000000000D+00
   260  2.5900000000000D+00  0.0000000000000D+00  0.0000000000000D+00
   261  2.6000000000000D+00  0.0000000000000D+00  0.0000000000000D+00
   262  2.6100000000000D+00  0.0000000000000D+00  0.0000000000000D+00
   263  2.6200000000000D+00  0.0000000000000D+00  0.0000000000000D+00
   264  2.6300000000000D+00  0.0000000000000D+00  0.0000000000000D+00
   265  2.6400000000000D+00  0.0000000000000D+00  0.0000000000000D+00
   266  2.6500000000000D+00  0.0000000000000D+00  0.0000000000000D+00
   267  2.6600000000000D+00  0.0000000000000D+00  0.0000000000000D+00
   268  2.6700000000000D+00  0.0000000000000D+00  0.0000000000000D+00
   269  2.6800000000000D+00  0.0000000000000D+00  0.0000000000000D+00
   270  2.6900000000000D+00  0.0000000000000D+00  0.0000000000000D+00
   271  2.7000000000000D+00  0.0000000000000D+00  0.0000000000000D+00
   272  2.7100000000000D+00  0.0000000000000D+00  0.0000000000000D+00
   273  2.7200000000000D+00  0.0000000000000D+00  0.0000000000000D+00
   274  2.7300000000000D+00  0.0000000000000D+00  0.0000000000000D+00
   275  2.7400000000000D+00  0.0000000000000D+00  0.0000000000000D+00
   276  2.7500000000000D+00  0.0000000000000D+00  0.0000000000000D+00
   277  2.7600000000000D+00  0.0000000000000D+00  0.0000000000000D+00
   278  2.7700000000000D+00  0.0000000000000D+00  0.0000000000000D+00
   279  2.7800000000000D+00  0.0000000000000D+00  0.0000000000000D+00
   280  2.7900000000000D+00  0.0000000000000D+00  0.0000000000000D+00
   281  2.8000000000000D+00  0.0000000000000D+00  0.0000000000000D+00
   282  2.8100000000000D+00  0.0000000000000D+00  0.0000000000000D+00
   283  2.8200000000000D+00  0.0000000000000D+00  0.0000000000000D+00
   284  2.8300000000000D+00  0.0000000000000D+00  0.0000000000000D+00
   285  2.8400000000000D+00  0.0000000000000D+00  0.0000000000000D+00
   286  2.8500000000000D+00  0.0000000000000D+00  0.0000000000000D+00
   287  2.8600000000000D+00  0.0000000000000D+00  0.0000000000000D+00
   288  2.8700000000000D+00  0.0000000000000D+00  0.0000000000000D+00
   289  2.8800000000000D+00  0.0000000000000D+00  0.0000000000000D+00
   290  2.8900000000000D+00  0.0000000000000D+00  0.0000000000000D+00
   291  2.9000000000000D+00  0.0000000000000D+00  0.0000000000000D+00
   292  2.9100000000000D+00  0.0000000000000D+00  0.0000000000000D+00
   293  2.9200000000000D+00  0.0000000000000D+00  0.0000000000000D+00
   294  2.9300000000000D+00  0.0000000000000D+00  0.0000000000000D+00
   295  2.9400000000000D+00  0.0000000000000D+00  0.0000000000000D+00
   296  2.9500000000000D+00  0.0000000000000D+00  0.0000000000000D+00
   297  2.9600000000000D+00  0.0000000000000D+00  0.0000000000000D+00
   298  2.9700000000000D+00  0.0000000000000D+00  0.0000000000000D+00
   299  2.9800000000000D+00  0.0000000000000D+00  0.0000000000000D+00
   300  2.9900000000000D+00  0.0000000000000D+00  0.0000000000000D+00
   301  3.0000000000000D+00  0.0000000000000D+00  0.0000000000000D+00
   302  3.0100000000000D+00  0.0000000000000D+00  0.0000000000000D+00
   303  3.0200000000000D+00  0.0000000000000D+00  0.0000000000000D+00
   304  3.0300000000000D+00  0.0000000000000D+00  0.0000000000000D+00
   305  3.0400000000000D+00  0.0000000000000D+00  0.0000000000000D+00
   306  3.0500000000000D+00  0.0000000000000D+00  0.0000000000000D+00
   307  3.0600000000000D+00  0.0000000000000D+00  0.0000000000000D+00
   308  3.0700000000000D+00  0.0000000000000D+00  0.0000000000000D+00
   309  3.0800000000000D+00  0.0000000000000D+00  0.0000000000000D+00
   310  3.0900000000000D+00  0.0000000000000D+00  0.0000000000000D+00
   311  3.1000000000000D+00  0.0000000000000D+00  0.0000000000000D+00
   312  3.1100000000000D+00  0.0000000000000D+00  0.0000000000000D+00
   313  3.1200000000000D+00  0.0000000000000D+00  0.0000000000000D+00
   314  3.1300000000000D+00  0.0000000000000D+00  0.0000000000000D+00
   315  3.1400000000000D+00  0.0000000000000D+00  0.0000000000000D+00
   316  3.1500000000000D+00  0.0000000000000D+00  0.0000000000000D+00
   317  3.1600000000000D+00  0.0000000000000D+00  0.0000000000000D+00
   318  3.1700000000000D+00  0.0000000000000D+00  0.0000000000000D+00
   319  3.1800000000000D+00  0.0000000000000D+00  0.0000000000000D+00
   320  3.1900000000000D+00  0.0000000000000D+00  0.0000000000000D+00
   321  3.2000000000000D+00  0.0000000000000D+00  0.0000000000000D+00
   322  3.2100000000000D+00  0.0000000000000D+00  0.0000000000000D+00
   323  3.2200000000000D+00  0.0000000000000D+00  0.0000000000000D+00
   324  3.2300000000000D+00  0.0000000000000D+00  0.0000000000000D+00
   325  3.2400000000000D+00  0.0000000000000D+00  0.0000000000000D+00
   326  3.2500000000000D+00  0.0000000000000D+00  0.0000000000000D+00
   327  3.2600000000000D+00  0.0000000000000D+00  0.0000000000000D+00
   328  3.2700000000000D+00  0.0000000000000D+00  0.0000000000000D+00
   329  3.2800000000000D+00  0.0000000000000D+00  0.0000000000000D+00
   330  3.2900000000000D+00  0.0000000000000D+00  0.0000000000000D+00
   331  3.3000000000000D+00  0.0000000000000D+00  0.0000000000000D+00
   332  3.3100000000000D+00  0.0000000000000D+00  0.0000000000000D+00
   333  3.3200000000000D+00  0.0000000000000D+00  0.0000000000000D+00
   334  3.3300000000000D+00  0.0000000000000D+00  0.0000000000000D+00
   335  3.3400000000000D+00  0.0000000000000D+00  0.0000000000000D+00
   336  3.3500000000000D+00  0.0000000000000D+00  0.0000000000000D+00
   337  3.3600000000000D+00  0.0000000000000D+00  0.0000000000000D+00
   338  3.3700000000000D+00  0.0000000000000D+00  0.0000000000000D+00
   339  3.3800000000000D+00  0.0000000000000D+00  0.0000000000000D+00
   340  3.3900000000000D+00  0.0000000000000D+00  0.0000000000000D+00
   341  3.4000000000000D+00  0.0000000000000D+00  0.0000000000000D+00
   342  3.4100000000000D+00  0.0000000000000D+00  0.0000000000000D+00
   343  3.4200000000000D+00  0.0000000000000D+00  0.0000000000000D+00
   344  3.4300000000000D+00  0.0000000000000D+00  0.0000000000000D+00
   345  3.4400000000000D+00  0.0000000000000D+00  0.0000000000000D+00
   346  3.4500000000000D+00  0.0000000000000D+00  0.0000000000000D+00
   347  3.4600000000000D+00  0.0000000000000D+00  0.0000000000000D+00
   348  3.4700000000000D+00  0.0000000000000D+00  0.0000000000000D+00
   349  3.4800000000000D+00  0.0000000000000D+00  0.0000000000000D+00
   350  3.4900000000000D+00  0.0000000000000D+00  0.0000000000000D+00
   351  3.5000000000000D+00  0.0000000000000D+00  0.0000000000000D+00
   352  3.5100000000000D+00  0.0000000000000D+00  0.0000000000000D+00
   353  3.5200000000000D+00  0.0000000000000D+00  0.0000000000000D+00
   354  3.5300000000000D+00  0.0000000000000D+00  0.0000000000000D+00
   355  3.5400000000000D+00  0.0000000000000D+00  0.0000000000000D+00
   356  3.5500000000000D+00  0.0000000000000D+00  0.0000000000000D+00
   357  3.5600000000000D+00  0.0000000000000D+00  0.0000000000000D+00
   358  3.5700000000000D+00  0.0000000000000D+00  0.0000000000000D+00
   359  3.5800000000000D+00  0.0000000000000D+00  0.0000000000000D+00
   360  3.5900000000000D+00  0.0000000000000D+00  0.0000000000000D+00
   361  3.6000000000000D+00  0.0000000000000D+00  0.0000000000000D+00
   362  3.6100000000000D+00  0.0000000000000D+00  0.0000000000000D+00
   363  3.6200000000000D+00  0.0000000000000D+00  0.0000000000000D+00
   364  3.6300000000000D+00  0.0000000000000D+00  0.0000000000000D+00
   365  3.6400000000000D+00  0.0000000000000D+00  0.0000000000000D+00
   366  3.6500000000000D+00  0.0000000000000D+00  0.0000000000000D+00
   367  3.6600000000000D+00  0.0000000000000D+00  0.0000000000000D+00
   368  3.6700000000000D+00  0.0000000000000D+00  0.0000000000000D+00
   369  3.6800000000000D+00  0.0000000000000D+00  0.0000000000000D+00
   370  3.6900000000000D+00  0.0000000000000D+00  0.0000000000000D+00
   371  3.7000000000000D+00  0.0000000000000D+00  0.0000000000000D+00
   372  3.7100000000000D+00  0.0000000000000D+00  0.0000000000000D+00
   373  3.7200000000000D+00  0.0000000000000D+00  0.0000000000000D+00
   374  3.7300000000000D+00  0.0000000000000D+00  0.0000000000000D+00
   375  3.7400000000000D+00  0.0000000000000D+00  0.0000000000000D+00
   376  3.7500000000000D+00  0.0000000000000D+00  0.0000000000000D+00
   377  3.7600000000000D+00  0.0000000000000D+00  0.0000000000000D+00
   378  3.7700000000000D+00  0.0000000000000D+00  0.0000000000000D+00
   379  3.7800000000000D+00  0.0000000000000D+00  0.0000000000000D+00
   380  3.7900000000000D+00  0.0000000000000D+00  0.0000000000000D+00
   381  3.8000000000000D+00  0.0000000000000D+00  0.0000000000000D+00
   382  3.8100000000000D+00  0.0000000000000D+00  0.0000000000000D+00
   383  3.8200000000000D+00  0.0000000000000D+00  0.0000000000000D+00
   384  3.8300000000000D+00  0.0000000000000D+00  0.0000000000000D+00
   385  3.8400000000000D+00  0.0000000000000D+00  0.0000000000000D+00
   386  3.8500000000000D+00  0.0000000000000D+00  0.0000000000000D+00
   387  3.8600000000000D+00  0.0000000000000D+00  0.0000000000000D+00
   388  3.8700000000000D+00  0.0000000000000D+00  0.0000000000000D+00
   389  3.8800000000000D+00  0.0000000000000D+00  0.0000000000000D+00
   390  3.8900000000000D+00  0.0000000000000D+00  0.0000000000000D+00
   391  3.9000000000000D+00  0.0000000000000D+00  0.0000000000000D+00
   392  3.9100000000000D+00  0.0000000000000D+00  0.0000000000000D+00
   393  3.9200000000000D+00  0.0000000000000D+00  0.0000000000000D+00
   394  3.9300000000000D+00  0.0000000000000D+00  0.0000000000000D+00
   395  3.9400000000000D+00  0.0000000000000D+00  0.0000000000000D+00
   396  3.9500000000000D+00  0.0000000000000D+00  0.0000000000000D+00
   397  3.9600000000000D+00  0.0000000000000D+00  0.0000000000000D+00
   398  3.9700000000000D+00  0.0000000000000D+00  0.0000000000000D+00
   399  3.9800000000000D+00  0.0000000000000D+00  0.0000000000000D+00
   400  3.9900000000000D+00  0.0000000000000D+00  0.0000000000000D+00
   1                        -6.7998458598975D+00 -2.4210271781496D+00
     1  0.0000000000000D+00  5.1231680009423D-10 -6.6415332955483D-10
     2  1.0000000000000D-02  2.2097142607028D-03 -9.8965842312527D-04
     3  2.0000000000000D-02  8.8275651233609D-03 -3.9492952585251D-03
     4  3.0000000000000D-02  1.9819732938742D-02 -8.8509560401507D-03
     5  4.0000000000000D-02  3.5130038391424D-02 -1.5648252432801D-02
     6  5.0000000000000D-02  5.4680221727541D-02 -2.4276664689429D-02
     7  6.0000000000000D-02  7.8370331832654D-02 -3.4653962687127D-02
     8  7.0000000000000D-02  1.0607922332667D-01 -4.6680743150654D-02
     9  8.0000000000000D-02  1.3766515933041D-01 -6.0241080008180D-02
    10  9.0000000000000D-02  1.7296651705457D-01 -7.5203284173662D-02
    11  1.0000000000000D-01  2.1180259286827D-01 -9.1420768417219D-02
    12  1.1000000000000D-01  2.5397450302369D-01 -1.0873301237218D-01
    13  1.2000000000000D-01  2.9926617574599D-01 -1.2696662213790D-01
    14  1.3000000000000D-01  3.4744542994771D-01 -1.4593647837405D-01
    15  1.4000000000000D-01  3.9826513539390D-01 -1.6544696624809D-01
    16  1.5000000000000D-01  4.5146444873237D-01 -1.8529328009529D-01
    17  1.6000000000000D-01  5.0677011941258D-01 -2.0526279518312D-01
    18  1.7000000000000D-01  5.6389785915065D-01 -2.2513649854199D-01
    19  1.8000000000000D-01  6.2255376825712D-01 -2.4469047043416D-01
    20  1.9000000000000D-01  6.8243581183084D-01 -2.6369740768483D-01
    21  2.0000000000000D-01  7.4323533853941D-01 -2.8192817979700D-01
    22  2.1000000000000D-01  8.0463863445353D-01 -2.9915340851538D-01