Sn    ONCVPSP-3.3.0  r_core=   2.27326   2.62311   1.85601
     50.0000     14.0000      220408    zatom,zion,pspd
     8       2   2     4   600     0    pspcod,pspxc,lmax,lloc,mmax,r2well
  5.99000000  0.00000000  0.00000000    rchrg fchrg qchrg
     2     2     2     0     0    nproj
     1     1           extension_switch
   0                         5.5540522315196D+00  7.4833334959491D-01
     1  0.0000000000000D+00  8.0425943682627D-13 -6.0498897558325D-12
     2  1.0000000000000D-02  1.3587194987127D-02  7.7565670971314D-03
     3  2.0000000000000D-02  2.7186892147360D-02  1.5461514073073D-02
     4  3.0000000000000D-02  4.0811544881678D-02  2.3063416893940D-02
     5  4.0000000000000D-02  5.4473509161569D-02  3.0511243098043D-02
     6  5.0000000000000D-02  6.8184995100955D-02  3.7754546077469D-02
     7  6.0000000000000D-02  8.1958018871601D-02  4.4743657558443D-02
     8  7.0000000000000D-02  9.5804355075541D-02  5.1429877687068D-02
     9  8.0000000000000D-02  1.0973548968733D-01  5.7765662133060D-02
    10  9.0000000000000D-02  1.2376257367787D-01  6.3704805631531D-02
    11  1.0000000000000D-01  1.3789637743053D-01  6.9202621391878D-02
    12  1.1000000000000D-01  1.5214724605859D-01  7.4216115813241D-02
    13  1.2000000000000D-01  1.6652505573187D-01  7.8704157957879D-02
    14  1.3000000000000D-01  1.8103917111830D-01  8.2627643247086D-02
    15  1.4000000000000D-01  1.9569840404440D-01  8.5949650859145D-02
    16  1.5000000000000D-01  2.1051097347639D-01  8.8635594324737D-02
    17  1.6000000000000D-01  2.2548446692128D-01  9.0653364833016D-02
    18  1.7000000000000D-01  2.4062580334495D-01  9.1973466780177D-02
    19  1.8000000000000D-01  2.5594119770108D-01  9.2569145112774D-02
    20  1.9000000000000D-01  2.7143612716230D-01  9.2416504039396D-02
    21  2.0000000000000D-01  2.8711529914149D-01  9.1494616707180D-02
    22  2.1000000000000D-01  3.0298262118797D-01  8.9785625463618D-02
    23  2.2000000000000D-01  3.1904117283990D-01  8.7274832349258D-02
    24  2.3000000000000D-01  3.3529317951033D-01  8.3950779493396D-02
    25  2.4000000000000D-01  3.5173998848063D-01  7.9805319112069D-02
    26  2.5000000000000D-01  3.6838204707105D-01  7.4833672836453D-02
    27  2.6000000000000D-01  3.8521888305367D-01  6.9034480128944D-02
    28  2.7000000000000D-01  4.0224908736898D-01  6.2409835574987D-02
    29  2.8000000000000D-01  4.1947029920246D-01  5.4965314869754D-02
    30  2.9000000000000D-01  4.3687919347310D-01  4.6709989351038D-02
    31  3.0000000000000D-01  4.5447147078063D-01  3.7656428962691D-02
    32  3.1000000000000D-01  4.7224184985352D-01  2.7820693566336D-02
    33  3.2000000000000D-01  4.9018406253438D-01  1.7222312553389D-02
    34  3.3000000000000D-01  5.0829085133436D-01  5.8842527439511D-03
    35  3.4000000000000D-01  5.2655396958238D-01 -6.1671254055046D-03
    36  3.5000000000000D-01  5.4496418418988D-01 -1.8902123228589D-02
    37  3.6000000000000D-01  5.6351128104565D-01 -3.2287770816562D-02
    38  3.7000000000000D-01  5.8218407305004D-01 -4.6287905398251D-02
    39  3.8000000000000D-01  6.0097041079138D-01 -6.0863260967546D-02
    40  3.9000000000000D-01  6.1985719586221D-01 -7.5971568957951D-02
    41  4.0000000000000D-01  6.3883039680610D-01 -9.1567669727734D-02
    42  4.1000000000000D-01  6.5787506768037D-01 -1.0760363458398D-01
    43  4.2000000000000D-01  6.7697536921367D-01 -1.2402889803845D-01
    44  4.3000000000000D-01  6.9611459253094D-01 -1.4079039995392D-01
    45  4.4000000000000D-01  7.1527518541249D-01 -1.5783273720509D-01
    46  4.5000000000000D-01  7.3443878104746D-01 -1.7509832444547D-01
    47  4.6000000000000D-01  7.5358622923560D-01 -1.9252756353837D-01
    48  4.7000000000000D-01  7.7269762998533D-01 -2.1005902117943D-01
    49  4.8000000000000D-01  7.9175236944979D-01 -2.2762961420674D-01
    50  4.9000000000000D-01  8.1072915813624D-01 -2.4517480206603D-01
    51  5.0000000000000D-01  8.2960607131840D-01 -2.6262878586966D-01
    52  5.1000000000000D-01  8.4836059157504D-01 -2.7992471346215D-01
    53  5.2000000000000D-01  8.6696965337239D-01 -2.9699488987938D-01
    54  5.3000000000000D-01  8.8540968960204D-01 -3.1377099256521D-01
    55  5.4000000000000D-01  9.0365667998030D-01 -3.3018429068786D-01
    56  5.5000000000000D-01  9.2168620120956D-01 -3.4616586787780D-01
    57  5.6000000000000D-01  9.3947347879656D-01 -3.6164684769150D-01
    58  5.7000000000000D-01  9.5699344041761D-01 -3.7655862108932D-01
    59  5.8000000000000D-01  9.7422077071530D-01 -3.9083307520157D-01
    60  5.9000000000000D-01  9.9112996740702D-01 -4.0440282264604D-01
    61  6.0000000000000D-01  1.0076953985804D+00 -4.1720143064994D-01
    62  6.1000000000000D-01  1.0238913610467D+00 -4.2916364922316D-01
    63  6.2000000000000D-01  1.0396921396197D+00 -4.4022563762465D-01
    64  6.3000000000000D-01  1.0550720671817D+00 -4.5032518836195D-01
    65  6.4000000000000D-01  1.0700055853983D+00 -4.5940194796455D-01
    66  6.5000000000000D-01  1.0844673059362D+00 -4.6739763377431D-01
    67  6.6000000000000D-01  1.0984320720387D+00 -4.7425624600262D-01
    68  6.7000000000000D-01  1.1118750203096D+00 -4.7992427431175D-01
    69  6.8000000000000D-01  1.1247716425529D+00 -4.8435089818906D-01
    70  6.9000000000000D-01  1.1370978475167D+00 -4.8748818039658D-01
    71  7.0000000000000D-01  1.1488300223847D+00 -4.8929125279415D-01
    72  7.1000000000000D-01  1.1599450938606D+00 -4.8971849385420D-01
    73  7.2000000000000D-01  1.1704205886871D+00 -4.8873169720686D-01
    74  7.3000000000000D-01  1.1802346934445D+00 -4.8629623057876D-01
    75  7.4000000000000D-01  1.1893663134687D+00 -4.8238118451531D-01
    76  7.5000000000000D-01  1.1977951307350D+00 -4.7695951030540D-01
    77  7.6000000000000D-01  1.2055016605497D+00 -4.7000814655887D-01
    78  7.7000000000000D-01  1.2124673068956D+00 -4.6150813392094D-01
    79  7.8000000000000D-01  1.2186744162786D+00 -4.5144471744367D-01
    80  7.9000000000000D-01  1.2241063299251D+00 -4.3980743617294D-01
    81  8.0000000000000D-01  1.2287474341803D+00 -4.2659019954890D-01
    82  8.1000000000000D-01  1.2325832089648D+00 -4.1179135026072D-01
    83  8.2000000000000D-01  1.2356002741455D+00 -3.9541371323946D-01
    84  8.3000000000000D-01  1.2377864336841D+00 -3.7746463051841D-01
    85  8.4000000000000D-01  1.2391307174290D+00 -3.5795598173728D-01
    86  8.5000000000000D-01  1.2396234204217D+00 -3.3690419011447D-01
    87  8.6000000000000D-01  1.2392561395945D+00 -3.1433021376075D-01
    88  8.7000000000000D-01  1.2380218077397D+00 -2.9025952225822D-01
    89  8.8000000000000D-01  1.2359147246389D+00 -2.6472205847895D-01
    90  8.9000000000000D-01  1.2329305852457D+00 -2.3775218566945D-01
    91  9.0000000000000D-01  1.2290665048223D+00 -2.0938861987915D-01
    92  9.1000000000000D-01  1.2243210409363D+00 -1.7967434786267D-01
    93  9.2000000000000D-01  1.2186942122343D+00 -1.4865653063853D-01
    94  9.3000000000000D-01  1.2121875139119D+00 -1.1638639293834D-01
    95  9.4000000000000D-01  1.2048039298126D+00 -8.2919098831992D-02
    96  9.5000000000000D-01  1.1965479410923D+00 -4.8313613865895D-02
    97  9.6000000000000D-01  1.1874255313968D+00 -1.2632554100776D-02
    98  9.7000000000000D-01  1.1774441885078D+00  2.4057977515334D-02
    99  9.8000000000000D-01  1.1666129024218D+00  6.1688566954909D-02
   100  9.9000000000000D-01  1.1549421598352D+00  1.0018667656950D-01
   101  1.0000000000000D+00  1.1424439350192D+00  1.3947684362405D-01
   102  1.0100000000000D+00  1.1291316770751D+00  1.7948088928899D-01
   103  1.0200000000000D+00  1.1150202935744D+00  2.2011813743112D-01
   104  1.0300000000000D+00  1.1001261305933D+00  2.6130564250449D-01
   105  1.0400000000000D+00  1.0844669491632D+00  3.0295842580856D-01
   106  1.0500000000000D+00  1.0680618981692D+00  3.4498971934333D-01
   107  1.0600000000000D+00  1.0509314837366D+00  3.8731121646243D-01
   108  1.0700000000000D+00  1.0330975351561D+00  4.2983332849562D-01
   109  1.0800000000000D+00  1.0145831674089D+00  4.7246544648589D-01
   110  1.0900000000000D+00  9.9541274036111D-01  5.1511620716612D-01
   111  1.1000000000000D+00  9.7561181470682D-01  5.5769376227779D-01
   112  1.1100000000000D+00  9.5520710475002D-01  6.0010605032002D-01
   113  1.1200000000000D+00  9.3422642812295D-01  6.4226106980406D-01
   114  1.1300000000000D+00  9.1269865254872D-01  6.8406715307939D-01
   115  1.1400000000000D+00  8.9065363976421D-01  7.2543323979101D-01
   116  1.1500000000000D+00  8.6812218672864D-01  7.6626914902533D-01
   117  1.1600000000000D+00  8.4513596425158D-01  8.0648584920417D-01
   118  1.1700000000000D+00  8.2172745318124D-01  8.4599572479091D-01
   119  1.1800000000000D+00  7.9792987830225D-01  8.8471283887951D-01
   120  1.1900000000000D+00  7.7377714010019D-01  9.2255319075111D-01
   121  1.2000000000000D+00  7.4930374455702D-01  9.5943496750144D-01
   122  1.2100000000000D+00  7.2454473114592D-01  9.9527878885081D-01
   123  1.2200000000000D+00  6.9953559920395D-01  1.0300079442818D+00
   124  1.2300000000000D+00  6.7431223286467D-01  1.0635486216738D+00
   125  1.2400000000000D+00  6.4891082473761D-01  1.0958301266263D+00
   126  1.2500000000000D+00  6.2336779852753D-01  1.1267850916950D+00
   127  1.2600000000000D+00  5.9771973079119D-01  1.1563496748143D+00
   128  1.2700000000000D+00  5.7200327203139D-01  1.1844637462011D+00
   129  1.2800000000000D+00  5.4625506733251D-01  1.2110710630715D+00
   130  1.2900000000000D+00  5.2051167674529D-01  1.2361194315753D+00
   131  1.3000000000000D+00  4.9480949562895D-01  1.2595608553673D+00
   132  1.3100000000000D+00  4.6918467516190D-01  1.2813516702798D+00
   133  1.3200000000000D+00  4.4367304323298D-01  1.3014526646583D+00
   134  1.3300000000000D+00  4.1831002592520D-01  1.3198291849092D+00
   135  1.3400000000000D+00  3.9313056980515D-01  1.3364512258909D+00
   136  1.3500000000000D+00  3.6816906522829D-01  1.3512935058792D+00
   137  1.3600000000000D+00  3.4345927087220D-01  1.3643355257835D+00
   138  1.3700000000000D+00  3.1903423970595D-01  1.3755616124581D+00
   139  1.3800000000000D+00  2.9492624659951D-01  1.3849609459784D+00
   140  1.3900000000000D+00  2.7116671778177D-01  1.3925275707230D+00
   141  1.4000000000000D+00  2.4778616234014D-01  1.3982603903323D+00
   142  1.4100000000000D+00  2.2481410596219D-01  1.4021631464955D+00
   143  1.4200000000000D+00  2.0227902711057D-01  1.4042443816716D+00
   144  1.4300000000000D+00  1.8020829580866D-01  1.4045173859485D+00
   145  1.4400000000000D+00  1.5862811523222D-01  1.4030001281131D+00
   146  1.4500000000000D+00  1.3756346626241D-01  1.3997151713382D+00
   147  1.4600000000000D+00  1.1703805518192D-01  1.3946895736712D+00
   148  1.4700000000000D+00  9.7074264667492D-02  1.3879547737474D+00
   149  1.4800000000000D+00  7.7693108224417D-02  1.3795464621555D+00
   150  1.4900000000000D+00  5.8914188227224D-02  1.3695044388205D+00
   151  1.5000000000000D+00  4.0755657667319D-02  1.3578724570719D+00
   152  1.5100000000000D+00  2.3234185776802D-02  1.3446980547498D+00
   153  1.5200000000000D+00  6.3649276017061D-03  1.3300323731342D+00
   154  1.5300000000000D+00 -9.8385023338736D-03  1.3139299641780D+00
   155  1.5400000000000D+00 -2.5364052195972D-02  1.2964485868055D+00
   156  1.5500000000000D+00 -4.0201250751818D-02  1.2776489929385D+00
   157  1.5600000000000D+00 -5.4341220932128D-02  1.2575947039709D+00
   158  1.5700000000000D+00 -6.7776689014997D-02  1.2363517784997D+00
   159  1.5800000000000D+00 -8.0501989321663D-02  1.2139885720135D+00
   160  1.5900000000000D+00 -9.2513064457090D-02  1.1905754894392D+00
   161  1.6000000000000D+00 -1.0380746097054D-01  1.1661847312601D+00
   162  1.6100000000000D+00 -1.1438432052215D-01  1.1408900341331D+00
   163  1.6200000000000D+00 -1.2424436643532D-01  1.1147664067707D+00
   164  1.6300000000000D+00 -1.3338988574952D-01  1.0878898619828D+00
   165  1.6400000000000D+00 -1.4182470668162D-01  1.0603371457085D+00
   166  1.6500000000000D+00 -1.4955417162254D-01  1.0321854638803D+00
   167  1.6600000000000D+00 -1.5658510561302D-01  1.0035122079936D+00
   168  1.6700000000000D+00 -1.6292578043674D-01  9.7439468016802D-01
   169  1.6800000000000D+00 -1.6858587430672D-01  9.4490981859623D-01
   170  1.6900000000000D+00 -1.7357642729934D-01  9.1513392409733D-01
   171  1.7000000000000D+00 -1.7790979253721D-01  8.8514238868456D-01
   172  1.7100000000000D+00 -1.8159958329734D-01  8.5500942677332D-01
   173  1.7200000000000D+00 -1.8466061606319D-01  8.2480780995689D-01
   174  1.7300000000000D+00 -1.8710884972584D-01  7.9460860584725D-01
   175  1.7400000000000D+00 -1.8896132096097D-01  7.6448092195151D-01
   176  1.7500000000000D+00 -1.9023607602283D-01  7.3449165489484D-01
   177  1.7600000000000D+00 -1.9095209898056D-01  7.0470524605070D-01
   178  1.7700000000000D+00 -1.9112923667986D-01  6.7518344362733D-01
   179  1.7800000000000D+00 -1.9078812044685D-01  6.4598507242766D-01
   180  1.7900000000000D+00 -1.8995008486020D-01  6.1716581098624D-01
   181  1.8000000000000D+00 -1.8863708302587D-01  5.8877797341168D-01
   182  1.8100000000000D+00 -1.8687160250473D-01  5.6087032228191D-01
   183  1.8200000000000D+00 -1.8467656742368D-01  5.3348781425980D-01
   184  1.8300000000000D+00 -1.8207526793403D-01  5.0667154780627D-01
   185  1.8400000000000D+00 -1.7909125143555D-01  4.8045849966672D-01
   186  1.8500000000000D+00 -1.7574819298556D-01  4.5488109866316D-01
   187  1.8600000000000D+00 -1.7206984789482D-01  4.2996742044743D-01
   188  1.8700000000000D+00 -1.6808003590795D-01  4.0574165637762D-01
   189  1.8800000000000D+00 -1.6380262038291D-01  3.8222447659817D-01
   190  1.8900000000000D+00 -1.5926152298337D-01  3.5943351189746D-01
   191  1.9000000000000D+00 -1.5448075545885D-01  3.3738399994444D-01
   192  1.9100000000000D+00 -1.4948433052393D-01  3.1608854048924D-01
   193  1.9200000000000D+00 -1.4429620328509D-01  2.9555702196835D-01
   194  1.9300000000000D+00 -1.3894024002225D-01  2.7579682726072D-01
   195  1.9400000000000D+00 -1.3344016707488D-01  2.5681286766849D-01
   196  1.9500000000000D+00 -1.2781952468757D-01  2.3860766282683D-01
   197  1.9600000000000D+00 -1.2210162234573D-01  2.2118143661471D-01
   198  1.9700000000000D+00 -1.1630949358067D-01  2.0453221135157D-01
   199  1.9800000000000D+00 -1.1046585175882D-01  1.8865591138711D-01
   200  1.9900000000000D+00 -1.0459304656122D-01  1.7354647238379D-01
   201  2.0000000000000D+00 -9.8713021304311D-02  1.5919595654110D-01
   202  2.0100000000000D+00 -9.2847271071762D-02  1.4559467233172D-01
   203  2.0200000000000D+00 -8.7016801783517D-02  1.3273129855216D-01
   204  2.0300000000000D+00 -8.1242090229401D-02  1.2059301185385D-01
   205  2.0400000000000D+00 -7.5543045103970D-02  1.0916561698566D-01
   206  2.0500000000000D+00 -6.9938969157187D-02  9.8433679190257D-02
   207  2.0600000000000D+00 -6.4448522417434D-02  8.8380657986273D-02
   208  2.0700000000000D+00 -5.9089686635327D-02  7.8989041545937D-02
   209  2.0800000000000D+00 -5.3879730918941D-02  7.0240481138366D-02
   210  2.0900000000000D+00 -4.8835178628527D-02  6.2115924858886D-02
   211  2.1000000000000D+00 -4.3971775611855D-02  5.4595749742739D-02
   212  2.1100000000000D+00 -3.9304459725938D-02  4.7659892237937D-02
   213  2.1200000000000D+00 -3.4847331804356D-02  4.1287975380527D-02
   214  2.1300000000000D+00 -3.0613628003792D-02  3.5459432987915D-02
   215  2.1400000000000D+00 -2.6615693604575D-02  3.0153629833082D-02
   216  2.1500000000000D+00 -2.2864958335375D-02  2.5349976712712D-02
   217  2.1600000000000D+00 -1.9371913147991D-02  2.1028041257323D-02
   218  2.1700000000000D+00 -1.6146088600485D-02  1.7167652012469D-02
   219  2.1800000000000D+00 -1.3196034776353D-02  1.3748996814386D-02
   220  2.1900000000000D+00 -1.0529302780182D-02  1.0752714737666D-02
   221  2.2000000000000D+00 -8.1539219448321D-03  8.1611628552076D-03
   222  2.2100000000000D+00 -6.0730475801832D-03  5.9542676227426D-03
   223  2.2200000000000D+00 -4.2887806994762D-03  4.1126461207912D-03
   224  2.2300000000000D+00 -2.7987205684239D-03  2.6153033759164D-03
   225  2.2400000000000D+00 -1.6271279375886D-03  1.4626891244496D-03
   226  2.2500000000000D+00 -7.8533904875852D-04  6.4642739628187D-04
   227  2.2600000000000D+00 -2.5802521752578D-04  1.4098884457505D-04
   228  2.2700000000000D+00  1.2816632151443D-05 -1.0708483181835D-04
   229  2.2800000000000D+00  9.3950468642706D-05 -1.5683255059196D-04
   230  2.2900000000000D+00  6.5494067544653D-05 -9.3931734438459D-05
   231  2.3000000000000D+00  3.1545520469247D-06 -4.2873928879537D-06
   232  2.3100000000000D+00 -2.2179355345629D-05  2.9745073085942D-05
   233  2.3200000000000D+00 -1.6824575863126D-05  2.2103454576864D-05
   234  2.3300000000000D+00  1.1180901678892D-06 -1.6073653392747D-06
   235  2.3400000000000D+00  4.4711631337389D-06 -6.3453696774797D-06
   236  2.3500000000000D+00  2.6762359342181D-06 -3.7604959836604D-06
   237  2.3600000000000D+00 -7.7205063942265D-08  1.9385756878787D-07
   238  2.3700000000000D+00 -1.6102802464176D-07  4.0433230373475D-07
   239  2.3800000000000D+00 -7.0919703324736D-08  1.7807538215332D-07
   240  2.3900000000000D+00  0.0000000000000D+00  0.0000000000000D+00
   241  2.4000000000000D+00  0.0000000000000D+00  0.0000000000000D+00
   242  2.4100000000000D+00  0.0000000000000D+00  0.0000000000000D+00
   243  2.4200000000000D+00  0.0000000000000D+00  0.0000000000000D+00
   244  2.4300000000000D+00  0.0000000000000D+00  0.0000000000000D+00
   245  2.4400000000000D+00  0.0000000000000D+00  0.0000000000000D+00
   246  2.4500000000000D+00  0.0000000000000D+00  0.0000000000000D+00
   247  2.4600000000000D+00  0.0000000000000D+00  0.0000000000000D+00
   248  2.4700000000000D+00  0.0000000000000D+00  0.0000000000000D+00
   249  2.4800000000000D+00  0.0000000000000D+00  0.0000000000000D+00
   250  2.4900000000000D+00  0.0000000000000D+00  0.0000000000000D+00
   251  2.5000000000000D+00  0.0000000000000D+00  0.0000000000000D+00
   252  2.5100000000000D+00  0.0000000000000D+00  0.0000000000000D+00
   253  2.5200000000000D+00  0.0000000000000D+00  0.0000000000000D+00
   254  2.5300000000000D+00  0.0000000000000D+00  0.0000000000000D+00
   255  2.5400000000000D+00  0.0000000000000D+00  0.0000000000000D+00
   256  2.5500000000000D+00  0.0000000000000D+00  0.0000000000000D+00
   257  2.5600000000000D+00  0.0000000000000D+00  0.0000000000000D+00
   258  2.5700000000000D+00  0.0000000000000D+00  0.0000000000000D+00
   259  2.5800000000000D+00  0.0000000000000D+00  0.0000000000000D+00
   260  2.5900000000000D+00  0.0000000000000D+00  0.0000000000000D+00
   261  2.6000000000000D+00  0.0000000000000D+00  0.0000000000000D+00
   262  2.6100000000000D+00  0.0000000000000D+00  0.0000000000000D+00
   263  2.6200000000000D+00  0.0000000000000D+00  0.0000000000000D+00
   264  2.6300000000000D+00  0.0000000000000D+00  0.0000000000000D+00
   265  2.6400000000000D+00  0.0000000000000D+00  0.0000000000000D+00
   266  2.6500000000000D+00  0.0000000000000D+00  0.0000000000000D+00
   267  2.6600000000000D+00  0.0000000000000D+00  0.0000000000000D+00
   268  2.6700000000000D+00  0.0000000000000D+00  0.0000000000000D+00
   269  2.6800000000000D+00  0.0000000000000D+00  0.0000000000000D+00
   270  2.6900000000000D+00  0.0000000000000D+00  0.0000000000000D+00
   271  2.7000000000000D+00  0.0000000000000D+00  0.0000000000000D+00
   272  2.7100000000000D+00  0.0000000000000D+00  0.0000000000000D+00
   273  2.7200000000000D+00  0.0000000000000D+00  0.0000000000000D+00
   274  2.7300000000000D+00  0.0000000000000D+00  0.0000000000000D+00
   275  2.7400000000000D+00  0.0000000000000D+00  0.0000000000000D+00
   276  2.7500000000000D+00  0.0000000000000D+00  0.0000000000000D+00
   277  2.7600000000000D+00  0.0000000000000D+00  0.0000000000000D+00
   278  2.7700000000000D+00  0.0000000000000D+00  0.0000000000000D+00
   279  2.7800000000000D+00  0.0000000000000D+00  0.0000000000000D+00
   280  2.7900000000000D+00  0.0000000000000D+00  0.0000000000000D+00
   281  2.8000000000000D+00  0.0000000000000D+00  0.0000000000000D+00
   282  2.8100000000000D+00  0.0000000000000D+00  0.0000000000000D+00
   283  2.8200000000000D+00  0.0000000000000D+00  0.0000000000000D+00
   284  2.8300000000000D+00  0.0000000000000D+00  0.0000000000000D+00
   285  2.8400000000000D+00  0.0000000000000D+00  0.0000000000000D+00
   286  2.8500000000000D+00  0.0000000000000D+00  0.0000000000000D+00
   287  2.8600000000000D+00  0.0000000000000D+00  0.0000000000000D+00
   288  2.8700000000000D+00  0.0000000000000D+00  0.0000000000000D+00
   289  2.8800000000000D+00  0.0000000000000D+00  0.0000000000000D+00
   290  2.8900000000000D+00  0.0000000000000D+00  0.0000000000000D+00
   291  2.9000000000000D+00  0.0000000000000D+00  0.0000000000000D+00
   292  2.9100000000000D+00  0.0000000000000D+00  0.0000000000000D+00
   293  2.9200000000000D+00  0.0000000000000D+00  0.0000000000000D+00
   294  2.9300000000000D+00  0.0000000000000D+00  0.0000000000000D+00
   295  2.9400000000000D+00  0.0000000000000D+00  0.0000000000000D+00
   296  2.9500000000000D+00  0.0000000000000D+00  0.0000000000000D+00
   297  2.9600000000000D+00  0.0000000000000D+00  0.0000000000000D+00
   298  2.9700000000000D+00  0.0000000000000D+00  0.0000000000000D+00
   299  2.9800000000000D+00  0.0000000000000D+00  0.0000000000000D+00
   300  2.9900000000000D+00  0.0000000000000D+00  0.0000000000000D+00
   301  3.0000000000000D+00  0.0000000000000D+00  0.0000000000000D+00
   302  3.0100000000000D+00  0.0000000000000D+00  0.0000000000000D+00
   303  3.0200000000000D+00  0.0000000000000D+00  0.0000000000000D+00
   304  3.0300000000000D+00  0.0000000000000D+00  0.0000000000000D+00
   305  3.0400000000000D+00  0.0000000000000D+00  0.0000000000000D+00
   306  3.0500000000000D+00  0.0000000000000D+00  0.0000000000000D+00
   307  3.0600000000000D+00  0.0000000000000D+00  0.0000000000000D+00
   308  3.0700000000000D+00  0.0000000000000D+00  0.0000000000000D+00
   309  3.0800000000000D+00  0.0000000000000D+00  0.0000000000000D+00
   310  3.0900000000000D+00  0.0000000000000D+00  0.0000000000000D+00
   311  3.1000000000000D+00  0.0000000000000D+00  0.0000000000000D+00
   312  3.1100000000000D+00  0.0000000000000D+00  0.0000000000000D+00
   313  3.1200000000000D+00  0.0000000000000D+00  0.0000000000000D+00
   314  3.1300000000000D+00  0.0000000000000D+00  0.0000000000000D+00
   315  3.1400000000000D+00  0.0000000000000D+00  0.0000000000000D+00
   316  3.1500000000000D+00  0.0000000000000D+00  0.0000000000000D+00
   317  3.1600000000000D+00  0.0000000000000D+00  0.0000000000000D+00
   318  3.1700000000000D+00  0.0000000000000D+00  0.0000000000000D+00
   319  3.1800000000000D+00  0.0000000000000D+00  0.0000000000000D+00
   320  3.1900000000000D+00  0.0000000000000D+00  0.0000000000000D+00
   321  3.2000000000000D+00  0.0000000000000D+00  0.0000000000000D+00
   322  3.2100000000000D+00  0.0000000000000D+00  0.0000000000000D+00
   323  3.2200000000000D+00  0.0000000000000D+00  0.0000000000000D+00
   324  3.2300000000000D+00  0.0000000000000D+00  0.0000000000000D+00
   325  3.2400000000000D+00  0.0000000000000D+00  0.0000000000000D+00
   326  3.2500000000000D+00  0.0000000000000D+00  0.0000000000000D+00
   327  3.2600000000000D+00  0.0000000000000D+00  0.0000000000000D+00
   328  3.2700000000000D+00  0.0000000000000D+00  0.0000000000000D+00
   329  3.2800000000000D+00  0.0000000000000D+00  0.0000000000000D+00
   330  3.2900000000000D+00  0.0000000000000D+00  0.0000000000000D+00
   331  3.3000000000000D+00  0.0000000000000D+00  0.0000000000000D+00
   332  3.3100000000000D+00  0.0000000000000D+00  0.0000000000000D+00
   333  3.3200000000000D+00  0.0000000000000D+00  0.0000000000000D+00
   334  3.3300000000000D+00  0.0000000000000D+00  0.0000000000000D+00
   335  3.3400000000000D+00  0.0000000000000D+00  0.0000000000000D+00
   336  3.3500000000000D+00  0.0000000000000D+00  0.0000000000000D+00
   337  3.3600000000000D+00  0.0000000000000D+00  0.0000000000000D+00
   338  3.3700000000000D+00  0.0000000000000D+00  0.0000000000000D+00
   339  3.3800000000000D+00  0.0000000000000D+00  0.0000000000000D+00
   340  3.3900000000000D+00  0.0000000000000D+00  0.0000000000000D+00
   341  3.4000000000000D+00  0.0000000000000D+00  0.0000000000000D+00
   342  3.4100000000000D+00  0.0000000000000D+00  0.0000000000000D+00
   343  3.4200000000000D+00  0.0000000000000D+00  0.0000000000000D+00
   344  3.4300000000000D+00  0.0000000000000D+00  0.0000000000000D+00
   345  3.4400000000000D+00  0.0000000000000D+00  0.0000000000000D+00
   346  3.4500000000000D+00  0.0000000000000D+00  0.0000000000000D+00
   347  3.4600000000000D+00  0.0000000000000D+00  0.0000000000000D+00
   348  3.4700000000000D+00  0.0000000000000D+00  0.0000000000000D+00
   349  3.4800000000000D+00  0.0000000000000D+00  0.0000000000000D+00
   350  3.4900000000000D+00  0.0000000000000D+00  0.0000000000000D+00
   351  3.5000000000000D+00  0.0000000000000D+00  0.0000000000000D+00
   352  3.5100000000000D+00  0.0000000000000D+00  0.0000000000000D+00
   353  3.5200000000000D+00  0.0000000000000D+00  0.0000000000000D+00
   354  3.5300000000000D+00  0.0000000000000D+00  0.0000000000000D+00
   355  3.5400000000000D+00  0.0000000000000D+00  0.0000000000000D+00
   356  3.5500000000000D+00  0.0000000000000D+00  0.0000000000000D+00
   357  3.5600000000000D+00  0.0000000000000D+00  0.0000000000000D+00
   358  3.5700000000000D+00  0.0000000000000D+00  0.0000000000000D+00
   359  3.5800000000000D+00  0.0000000000000D+00  0.0000000000000D+00
   360  3.5900000000000D+00  0.0000000000000D+00  0.0000000000000D+00
   361  3.6000000000000D+00  0.0000000000000D+00  0.0000000000000D+00
   362  3.6100000000000D+00  0.0000000000000D+00  0.0000000000000D+00
   363  3.6200000000000D+00  0.0000000000000D+00  0.0000000000000D+00
   364  3.6300000000000D+00  0.0000000000000D+00  0.0000000000000D+00
   365  3.6400000000000D+00  0.0000000000000D+00  0.0000000000000D+00
   366  3.6500000000000D+00  0.0000000000000D+00  0.0000000000000D+00
   367  3.6600000000000D+00  0.0000000000000D+00  0.0000000000000D+00
   368  3.6700000000000D+00  0.0000000000000D+00  0.0000000000000D+00
   369  3.6800000000000D+00  0.0000000000000D+00  0.0000000000000D+00
   370  3.6900000000000D+00  0.0000000000000D+00  0.0000000000000D+00
   371  3.7000000000000D+00  0.0000000000000D+00  0.0000000000000D+00
   372  3.7100000000000D+00  0.0000000000000D+00  0.0000000000000D+00
   373  3.7200000000000D+00  0.0000000000000D+00  0.0000000000000D+00
   374  3.7300000000000D+00  0.0000000000000D+00  0.0000000000000D+00
   375  3.7400000000000D+00  0.0000000000000D+00  0.0000000000000D+00
   376  3.7500000000000D+00  0.0000000000000D+00  0.0000000000000D+00
   377  3.7600000000000D+00  0.0000000000000D+00  0.0000000000000D+00
   378  3.7700000000000D+00  0.0000000000000D+00  0.0000000000000D+00
   379  3.7800000000000D+00  0.0000000000000D+00  0.0000000000000D+00
   380  3.7900000000000D+00  0.0000000000000D+00  0.0000000000000D+00
   381  3.8000000000000D+00  0.0000000000000D+00  0.0000000000000D+00
   382  3.8100000000000D+00  0.0000000000000D+00  0.0000000000000D+00
   383  3.8200000000000D+00  0.0000000000000D+00  0.0000000000000D+00
   384  3.8300000000000D+00  0.0000000000000D+00  0.0000000000000D+00
   385  3.8400000000000D+00  0.0000000000000D+00  0.0000000000000D+00
   386  3.8500000000000D+00  0.0000000000000D+00  0.0000000000000D+00
   387  3.8600000000000D+00  0.0000000000000D+00  0.0000000000000D+00
   388  3.8700000000000D+00  0.0000000000000D+00  0.0000000000000D+00
   389  3.8800000000000D+00  0.0000000000000D+00  0.0000000000000D+00
   390  3.8900000000000D+00  0.0000000000000D+00  0.0000000000000D+00
   391  3.9000000000000D+00  0.0000000000000D+00  0.0000000000000D+00
   392  3.9100000000000D+00  0.0000000000000D+00  0.0000000000000D+00
   393  3.9200000000000D+00  0.0000000000000D+00  0.0000000000000D+00
   394  3.9300000000000D+00  0.0000000000000D+00  0.0000000000000D+00
   395  3.9400000000000D+00  0.0000000000000D+00  0.0000000000000D+00
   396  3.9500000000000D+00  0.0000000000000D+00  0.0000000000000D+00
   397  3.9600000000000D+00  0.0000000000000D+00  0.0000000000000D+00
   398  3.9700000000000D+00  0.0000000000000D+00  0.0000000000000D+00
   399  3.9800000000000D+00  0.0000000000000D+00  0.0000000000000D+00
   400  3.9900000000000D+00  0.0000000000000D+00  0.0000000000000D+00
   401  4.0000000000000D+00  0.0000000000000D+00  0.0000000000000D+00
   402  4.0100000000000D+00  0.0000000000000D+00  0.0000000000000D+00
   403  4.0200000000000D+00  0.0000000000000D+00  0.0000000000000D+00
   404  4.0300000000000D+00  0.0000000000000D+00  0.0000000000000D+00
   405  4.0400000000000D+00  0.0000000000000D+00  0.0000000000000D+00
   406  4.0500000000000D+00  0.0000000000000D+00  0.0000000000000D+00
   407  4.0600000000000D+00  0.0000000000000D+00  0.0000000000000D+00
   408  4.0700000000000D+00  0.0000000000000D+00  0.0000000000000D+00
   409  4.0800000000000D+00  0.0000000000000D+00  0.0000000000000D+00
   410  4.0900000000000D+00  0.0000000000000D+00  0.0000000000000D+00
   411  4.1000000000000D+00  0.0000000000000D+00  0.0000000000000D+00
   412  4.1100000000000D+00  0.0000000000000D+00  0.0000000000000D+00
   413  4.1200000000000D+00  0.0000000000000D+00  0.0000000000000D+00
   414  4.1300000000000D+00  0.0000000000000D+00  0.0000000000000D+00
   415  4.1400000000000D+00  0.0000000000000D+00  0.0000000000000D+00
   416  4.1500000000000D+00  0.0000000000000D+00  0.0000000000000D+00
   417  4.1600000000000D+00  0.0000000000000D+00  0.0000000000000D+00
   418  4.1700000000000D+00  0.0000000000000D+00  0.0000000000000D+00
   419  4.1800000000000D+00  0.0000000000000D+00  0.0000000000000D+00
   420  4.1900000000000D+00  0.0000000000000D+00  0.0000000000000D+00
   421  4.2000000000000D+00  0.0000000000000D+00  0.0000000000000D+00
   422  4.2100000000000D+00  0.0000000000000D+00  0.0000000000000D+00