Sn    ONCVPSP-3.3.0  r_core=   1.31325   1.31325   1.51535
     50.0000     22.0000      220408    zatom,zion,pspd
     8       2   2     4   600     0    pspcod,pspxc,lmax,lloc,mmax,r2well
  5.99000000  0.00000000  0.00000000    rchrg fchrg qchrg
     2     2     2     0     0    nproj
     1     1           extension_switch
   0                         9.7298655251262D+00 -5.9408022880495D-01
     1  0.0000000000000D+00  1.7833401422251D-11 -1.0522655524703D-08
     2  1.0000000000000D-02  8.4703490369212D-02  7.9521616459740D-02
     3  2.0000000000000D-02  1.6918928651697D-01  1.5829564852322D-01
     4  3.0000000000000D-02  2.5324033227997D-01  2.3558412535615D-01
     5  4.0000000000000D-02  3.3664084622885D-01  3.1066814656642D-01
     6  5.0000000000000D-02  4.1917695557475D-01  3.8285702847028D-01
     7  6.0000000000000D-02  5.0063732591009D-01  4.5149699126359D-01
     8  7.0000000000000D-02  5.8081378537373D-01  5.1597924667431D-01
     9  8.0000000000000D-02  6.5950194181243D-01  5.7574735619530D-01
    10  9.0000000000000D-02  7.3650179148934D-01  6.3030374280015D-01
    11  1.0000000000000D-01  8.1161831786542D-01  6.7921525390547D-01
    12  1.1000000000000D-01  8.8466207895255D-01  7.2211768999941D-01
    13  1.2000000000000D-01  9.5544978170769D-01  7.5871923151721D-01
    14  1.3000000000000D-01  1.0238048419075D+00  7.8880271588870D-01
    15  1.4000000000000D-01  1.0895579279119D+00  8.1222673687111D-01
    16  1.5000000000000D-01  1.1525474866957D+00  8.2892555895546D-01
    17  1.6000000000000D-01  1.2126202504976D+00  8.3890786043113D-01
    18  1.7000000000000D-01  1.2696317224126D+00  8.4225433924124D-01
    19  1.8000000000000D-01  1.3234466392285D+00  8.3911423569551D-01
    20  1.9000000000000D-01  1.3739394097931D+00  8.2970084507176D-01
    21  2.0000000000000D-01  1.4209945271845D+00  8.1428611078962D-01
    22  2.1000000000000D-01  1.4645069529536D+00  7.9319440486506D-01
    23  2.2000000000000D-01  1.5043824717112D+00  7.6679561645637D-01
    24  2.3000000000000D-01  1.5405380143450D+00  7.3549768123784D-01
    25  2.4000000000000D-01  1.5729019481738D+00  6.9973869386032D-01
    26  2.5000000000000D-01  1.6014143323805D+00  6.5997875270271D-01
    27  2.6000000000000D-01  1.6260271371128D+00  6.1669169034810D-01
    28  2.7000000000000D-01  1.6467044246971D+00  5.7035684464566D-01
    29  2.8000000000000D-01  1.6634224914871D+00  5.2145102380845D-01
    30  2.9000000000000D-01  1.6761699689534D+00  4.7044081475709D-01
    31  3.0000000000000D-01  1.6849478827235D+00  4.1777537691818D-01
    32  3.1000000000000D-01  1.6897696684013D+00  3.6387985403081D-01
    33  3.2000000000000D-01  1.6906611431239D+00  3.0914952437222D-01
    34  3.3000000000000D-01  1.6876604319681D+00  2.5394479538683D-01
    35  3.4000000000000D-01  1.6808178484804D+00  1.9858713224405D-01
    36  3.5000000000000D-01  1.6701957287848D+00  1.4335599164578D-01
    37  3.6000000000000D-01  1.6558682189201D+00  8.8486812578008D-02
    38  3.7000000000000D-01  1.6379210152656D+00  3.4170095000735D-02
    39  3.8000000000000D-01  1.6164510581396D+00 -1.9448423928372D-02
    40  3.9000000000000D-01  1.5915661788890D+00 -7.2266508211608D-02
    41  4.0000000000000D-01  1.5633847010386D+00 -1.2422310968865D-01
    42  4.1000000000000D-01  1.5320349963205D+00 -1.7529505790593D-01
    43  4.2000000000000D-01  1.4976549966763D+00 -2.2549282830335D-01
    44  4.3000000000000D-01  1.4603916635908D+00 -2.7485548282628D-01
    45  4.4000000000000D-01  1.4204004163953D+00 -3.2344489442329D-01
    46  4.5000000000000D-01  1.3778445214561D+00 -3.7133938226972D-01
    47  4.6000000000000D-01  1.3328944444431D+00 -4.1862689765749D-01
    48  4.7000000000000D-01  1.2857271681493D+00 -4.6539791104516D-01
    49  4.8000000000000D-01  1.2365254786024D+00 -5.1173815853896D-01
    50  4.9000000000000D-01  1.1854772224746D+00 -5.5772141090029D-01
    51  5.0000000000000D-01  1.1327745390473D+00 -6.0340242992157D-01
    52  5.1000000000000D-01  1.0786130702310D+00 -6.4881027560372D-01
    53  5.2000000000000D-01  1.0231911523609D+00 -6.9394212299325D-01
    54  5.3000000000000D-01  9.6670899369504D-01 -7.3875773984086D-01
    55  5.4000000000000D-01  9.0936784172837D-01 -7.8317476551391D-01
    56  5.5000000000000D-01  8.5136914459103D-01 -8.2706491799310D-01
    57  5.6000000000000D-01  7.9291371093749D-01 -8.7025123955482D-01
    58  5.7000000000000D-01  7.3420087283490D-01 -9.1250647304160D-01
    59  5.8000000000000D-01  6.7542765623425D-01 -9.5355263995815D-01
    60  5.9000000000000D-01  6.1678796364854D-01 -9.9306186906842D-01
    61  6.0000000000000D-01  5.5847177366918D-01 -1.0306585004682D+00
    62  6.1000000000000D-01  5.0066436192293D-01 -1.0659224652441D+00
    63  6.2000000000000D-01  4.4354554800584D-01 -1.0983939157422D+00
    64  6.3000000000000D-01  3.8728897282772D-01 -1.1275790561302D+00
    65  6.4000000000000D-01  3.3206141065975D-01 -1.1529570981854D+00
    66  6.5000000000000D-01  2.7802211999982D-01 -1.1739882433990D+00
    67  6.6000000000000D-01  2.2532223715414D-01 -1.1901225698911D+00
    68  6.7000000000000D-01  1.7410421618193D-01 -1.2008096819838D+00
    69  6.8000000000000D-01  1.2450131856439D-01 -1.2055089618126D+00
    70  6.9000000000000D-01  7.6637155637598D-02 -1.2037002464000D+00
    71  7.0000000000000D-01  3.0625286479581D-02 -1.1948947407301D+00
    72  7.1000000000000D-01 -1.3431126438540D-02 -1.1786459676230D+00
    73  7.2000000000000D-01 -5.5439601930694D-02 -1.1545605489583D+00
    74  7.3000000000000D-01 -9.5318563625599D-02 -1.1223086101799D+00
    75  7.4000000000000D-01 -1.3299750131442D-01 -1.0816336011773D+00
    76  7.5000000000000D-01 -1.6841706954315D-01 -1.0323613315856D+00
    77  7.6000000000000D-01 -2.0152912334707D-01 -9.7440802730269D-01
    78  7.7000000000000D-01 -2.3229669150071D-01 -9.0778722746612D-01
    79  7.8000000000000D-01 -2.6069388813337D-01 -8.3261535708567D-01
    80  7.9000000000000D-01 -2.8670576403599D-01 -7.4911582990797D-01
    81  8.0000000000000D-01 -3.1032809944874D-01 -6.5762155837823D-01
    82  8.1000000000000D-01 -3.3156714057180D-01 -5.5857577262485D-01
    83  8.2000000000000D-01 -3.5043928247583D-01 -4.5253107771679D-01
    84  8.3000000000000D-01 -3.6697070149959D-01 -3.4014670761569D-01
    85  8.4000000000000D-01 -3.8119694060629D-01 -2.2218396477400D-01
    86  8.5000000000000D-01 -3.9316245152234D-01 -9.9499865697772D-02
    87  8.6000000000000D-01 -4.0292009779838D-01  2.6960955544840D-02
    88  8.7000000000000D-01 -4.1053062320962D-01  1.5617600248698D-01
    89  8.8000000000000D-01 -4.1606209014616D-01  2.8705621613581D-01
    90  8.9000000000000D-01 -4.1958929283269D-01  4.1845867638898D-01
    91  9.0000000000000D-01 -4.2119315035685D-01  5.4920053454044D-01
    92  9.1000000000000D-01 -4.2096008457587D-01  6.7807398156172D-01
    93  9.2000000000000D-01 -4.1898138801038D-01  8.0386203488995D-01
    94  9.3000000000000D-01 -4.1535258682072D-01  9.2535490783998D-01
    95  9.4000000000000D-01 -4.1017280389673D-01  1.0413667108618D+00
    96  9.5000000000000D-01 -4.0354412697482D-01  1.1507522230022D+00
    97  9.6000000000000D-01 -3.9557098652814D-01  1.2524234654355D+00
    98  9.7000000000000D-01 -3.8635954796433D-01  1.3453658067289D+00
    99  9.8000000000000D-01 -3.7601712239736D-01  1.4286533321038D+00
   100  9.9000000000000D-01 -3.6465159995943D-01  1.5014632160350D+00
   101  1.0000000000000D+00 -3.5237090927243D-01  1.5630888491965D+00
   102  1.0100000000000D+00 -3.3928250631826D-01  1.6129514868377D+00
   103  1.0200000000000D+00 -3.2549289553756D-01  1.6506102058494D+00
   104  1.0300000000000D+00 -3.1110718553488D-01  1.6757699829478D+00
   105  1.0400000000000D+00 -2.9622868134563D-01  1.6882877317240D+00
   106  1.0500000000000D+00 -2.8095851469897D-01  1.6881761703038D+00
   107  1.0600000000000D+00 -2.6539531326106D-01  1.6756054227489D+00
   108  1.0700000000000D+00 -2.4963490934711D-01  1.6509022934377D+00
   109  1.0800000000000D+00 -2.3377008808585D-01  1.6145471926081D+00
   110  1.0900000000000D+00 -2.1789037459843D-01  1.5671687247710D+00
   111  1.1000000000000D+00 -2.0208185922856D-01  1.5095359951977D+00
   112  1.1100000000000D+00 -1.8642705945810D-01  1.4425487246219D+00
   113  1.1200000000000D+00 -1.7100481670987D-01  1.3672253006330D+00
   114  1.1300000000000D+00 -1.5589022587096D-01  1.2846889280980D+00
   115  1.1400000000000D+00 -1.4115459502268D-01  1.1961520734821D+00
   116  1.1500000000000D+00 -1.2686543252214D-01  1.1028994314386D+00
   117  1.1600000000000D+00 -1.1308645834596D-01  1.0062696659119D+00
   118  1.1700000000000D+00 -9.9877636396116D-02  9.0763619995060D-01
   119  1.1800000000000D+00 -8.7295224275492D-02  8.0838734919561D-01
   120  1.1900000000000D+00 -7.5391836923472D-02  7.0990610843820D-01
   121  1.2000000000000D+00 -6.4216520472351D-02  6.1354990633312D-01
   122  1.2100000000000D+00 -5.3814832634462D-02  5.2063065001438D-01
   123  1.2200000000000D+00 -4.4228925979065D-02  4.3239538099162D-01
   124  1.2300000000000D+00 -3.5497630594693D-02  3.5000785223960D-01
   125  1.2400000000000D+00 -2.7656532719981D-02  2.7453132986066D-01
   126  1.2500000000000D+00 -2.0738046107843D-02  2.0691290779091D-01
   127  1.2600000000000D+00 -1.4771473230741D-02  1.4796959228256D-01
   128  1.2700000000000D+00 -9.7845125954319D-03  9.8391502382166D-02
   129  1.2800000000000D+00 -5.7974493857733D-03  5.8671703904335D-02
   130  1.2900000000000D+00 -2.8136248774271D-03  2.8989315250700D-02
   131  1.3000000000000D+00 -9.2268862727261D-04  1.0357314895817D-02
   132  1.3100000000000D+00 -7.9790294230130D-05  2.1324006879268D-03
   133  1.3200000000000D+00  7.8913920542574D-05 -2.8177529890503D-05
   134  1.3300000000000D+00 -5.8155983481482D-06  1.8446938679629D-05
   135  1.3400000000000D+00 -1.7191283394399D-05  7.1346908445881D-05
   136  1.3500000000000D+00  3.7436527116220D-06 -9.6346827070398D-06
   137  1.3600000000000D+00  8.3815132570625D-07 -2.5293549900346D-06
   138  1.3700000000000D+00 -7.0572799914367D-08 -2.8020010845571D-06
   139  1.3800000000000D+00  0.0000000000000D+00  0.0000000000000D+00
   140  1.3900000000000D+00  0.0000000000000D+00  0.0000000000000D+00
   141  1.4000000000000D+00  0.0000000000000D+00  0.0000000000000D+00
   142  1.4100000000000D+00  0.0000000000000D+00  0.0000000000000D+00
   143  1.4200000000000D+00  0.0000000000000D+00  0.0000000000000D+00
   144  1.4300000000000D+00  0.0000000000000D+00  0.0000000000000D+00
   145  1.4400000000000D+00  0.0000000000000D+00  0.0000000000000D+00
   146  1.4500000000000D+00  0.0000000000000D+00  0.0000000000000D+00
   147  1.4600000000000D+00  0.0000000000000D+00  0.0000000000000D+00
   148  1.4700000000000D+00  0.0000000000000D+00  0.0000000000000D+00
   149  1.4800000000000D+00  0.0000000000000D+00  0.0000000000000D+00
   150  1.4900000000000D+00  0.0000000000000D+00  0.0000000000000D+00
   151  1.5000000000000D+00  0.0000000000000D+00  0.0000000000000D+00
   152  1.5100000000000D+00  0.0000000000000D+00  0.0000000000000D+00
   153  1.5200000000000D+00  0.0000000000000D+00  0.0000000000000D+00
   154  1.5300000000000D+00  0.0000000000000D+00  0.0000000000000D+00
   155  1.5400000000000D+00  0.0000000000000D+00  0.0000000000000D+00
   156  1.5500000000000D+00  0.0000000000000D+00  0.0000000000000D+00
   157  1.5600000000000D+00  0.0000000000000D+00  0.0000000000000D+00
   158  1.5700000000000D+00  0.0000000000000D+00  0.0000000000000D+00
   159  1.5800000000000D+00  0.0000000000000D+00  0.0000000000000D+00
   160  1.5900000000000D+00  0.0000000000000D+00  0.0000000000000D+00
   161  1.6000000000000D+00  0.0000000000000D+00  0.0000000000000D+00
   162  1.6100000000000D+00  0.0000000000000D+00  0.0000000000000D+00
   163  1.6200000000000D+00  0.0000000000000D+00  0.0000000000000D+00
   164  1.6300000000000D+00  0.0000000000000D+00  0.0000000000000D+00
   165  1.6400000000000D+00  0.0000000000000D+00  0.0000000000000D+00
   166  1.6500000000000D+00  0.0000000000000D+00  0.0000000000000D+00
   167  1.6600000000000D+00  0.0000000000000D+00  0.0000000000000D+00
   168  1.6700000000000D+00  0.0000000000000D+00  0.0000000000000D+00
   169  1.6800000000000D+00  0.0000000000000D+00  0.0000000000000D+00
   170  1.6900000000000D+00  0.0000000000000D+00  0.0000000000000D+00
   171  1.7000000000000D+00  0.0000000000000D+00  0.0000000000000D+00
   172  1.7100000000000D+00  0.0000000000000D+00  0.0000000000000D+00
   173  1.7200000000000D+00  0.0000000000000D+00  0.0000000000000D+00
   174  1.7300000000000D+00  0.0000000000000D+00  0.0000000000000D+00
   175  1.7400000000000D+00  0.0000000000000D+00  0.0000000000000D+00
   176  1.7500000000000D+00  0.0000000000000D+00  0.0000000000000D+00
   177  1.7600000000000D+00  0.0000000000000D+00  0.0000000000000D+00
   178  1.7700000000000D+00  0.0000000000000D+00  0.0000000000000D+00
   179  1.7800000000000D+00  0.0000000000000D+00  0.0000000000000D+00
   180  1.7900000000000D+00  0.0000000000000D+00  0.0000000000000D+00
   181  1.8000000000000D+00  0.0000000000000D+00  0.0000000000000D+00
   182  1.8100000000000D+00  0.0000000000000D+00  0.0000000000000D+00
   183  1.8200000000000D+00  0.0000000000000D+00  0.0000000000000D+00
   184  1.8300000000000D+00  0.0000000000000D+00  0.0000000000000D+00
   185  1.8400000000000D+00  0.0000000000000D+00  0.0000000000000D+00
   186  1.8500000000000D+00  0.0000000000000D+00  0.0000000000000D+00
   187  1.8600000000000D+00  0.0000000000000D+00  0.0000000000000D+00
   188  1.8700000000000D+00  0.0000000000000D+00  0.0000000000000D+00
   189  1.8800000000000D+00  0.0000000000000D+00  0.0000000000000D+00
   190  1.8900000000000D+00  0.0000000000000D+00  0.0000000000000D+00
   191  1.9000000000000D+00  0.0000000000000D+00  0.0000000000000D+00
   192  1.9100000000000D+00  0.0000000000000D+00  0.0000000000000D+00
   193  1.9200000000000D+00  0.0000000000000D+00  0.0000000000000D+00
   194  1.9300000000000D+00  0.0000000000000D+00  0.0000000000000D+00
   195  1.9400000000000D+00  0.0000000000000D+00  0.0000000000000D+00
   196  1.9500000000000D+00  0.0000000000000D+00  0.0000000000000D+00
   197  1.9600000000000D+00  0.0000000000000D+00  0.0000000000000D+00
   198  1.9700000000000D+00  0.0000000000000D+00  0.0000000000000D+00
   199  1.9800000000000D+00  0.0000000000000D+00  0.0000000000000D+00
   200  1.9900000000000D+00  0.0000000000000D+00  0.0000000000000D+00
   201  2.0000000000000D+00  0.0000000000000D+00  0.0000000000000D+00
   202  2.0100000000000D+00  0.0000000000000D+00  0.0000000000000D+00
   203  2.0200000000000D+00  0.0000000000000D+00  0.0000000000000D+00
   204  2.0300000000000D+00  0.0000000000000D+00  0.0000000000000D+00
   205  2.0400000000000D+00  0.0000000000000D+00  0.0000000000000D+00
   206  2.0500000000000D+00  0.0000000000000D+00  0.0000000000000D+00
   207  2.0600000000000D+00  0.0000000000000D+00  0.0000000000000D+00
   208  2.0700000000000D+00  0.0000000000000D+00  0.0000000000000D+00
   209  2.0800000000000D+00  0.0000000000000D+00  0.0000000000000D+00
   210  2.0900000000000D+00  0.0000000000000D+00  0.0000000000000D+00
   211  2.1000000000000D+00  0.0000000000000D+00  0.0000000000000D+00
   212  2.1100000000000D+00  0.0000000000000D+00  0.0000000000000D+00
   213  2.1200000000000D+00  0.0000000000000D+00  0.0000000000000D+00
   214  2.1300000000000D+00  0.0000000000000D+00  0.0000000000000D+00
   215  2.1400000000000D+00  0.0000000000000D+00  0.0000000000000D+00
   216  2.1500000000000D+00  0.0000000000000D+00  0.0000000000000D+00
   217  2.1600000000000D+00  0.0000000000000D+00  0.0000000000000D+00
   218  2.1700000000000D+00  0.0000000000000D+00  0.0000000000000D+00
   219  2.1800000000000D+00  0.0000000000000D+00  0.0000000000000D+00
   220  2.1900000000000D+00  0.0000000000000D+00  0.0000000000000D+00
   221  2.2000000000000D+00  0.0000000000000D+00  0.0000000000000D+00
   222  2.2100000000000D+00  0.0000000000000D+00  0.0000000000000D+00
   223  2.2200000000000D+00  0.0000000000000D+00  0.0000000000000D+00
   224  2.2300000000000D+00  0.0000000000000D+00  0.0000000000000D+00
   225  2.2400000000000D+00  0.0000000000000D+00  0.0000000000000D+00
   226  2.2500000000000D+00  0.0000000000000D+00  0.0000000000000D+00
   227  2.2600000000000D+00  0.0000000000000D+00  0.0000000000000D+00
   228  2.2700000000000D+00  0.0000000000000D+00  0.0000000000000D+00
   229  2.2800000000000D+00  0.0000000000000D+00  0.0000000000000D+00
   230  2.2900000000000D+00  0.0000000000000D+00  0.0000000000000D+00
   231  2.3000000000000D+00  0.0000000000000D+00  0.0000000000000D+00
   232  2.3100000000000D+00  0.0000000000000D+00  0.0000000000000D+00
   233  2.3200000000000D+00  0.0000000000000D+00  0.0000000000000D+00
   234  2.3300000000000D+00  0.0000000000000D+00  0.0000000000000D+00
   235  2.3400000000000D+00  0.0000000000000D+00  0.0000000000000D+00
   236  2.3500000000000D+00  0.0000000000000D+00  0.0000000000000D+00
   237  2.3600000000000D+00  0.0000000000000D+00  0.0000000000000D+00
   238  2.3700000000000D+00  0.0000000000000D+00  0.0000000000000D+00
   239  2.3800000000000D+00  0.0000000000000D+00  0.0000000000000D+00
   240  2.3900000000000D+00  0.0000000000000D+00  0.0000000000000D+00
   241  2.4000000000000D+00  0.0000000000000D+00  0.0000000000000D+00
   242  2.4100000000000D+00  0.0000000000000D+00  0.0000000000000D+00
   243  2.4200000000000D+00  0.0000000000000D+00  0.0000000000000D+00
   244  2.4300000000000D+00  0.0000000000000D+00  0.0000000000000D+00
   245  2.4400000000000D+00  0.0000000000000D+00  0.0000000000000D+00
   246  2.4500000000000D+00  0.0000000000000D+00  0.0000000000000D+00
   247  2.4600000000000D+00  0.0000000000000D+00  0.0000000000000D+00
   248  2.4700000000000D+00  0.0000000000000D+00  0.0000000000000D+00
   249  2.4800000000000D+00  0.0000000000000D+00  0.0000000000000D+00
   250  2.4900000000000D+00  0.0000000000000D+00  0.0000000000000D+00
   251  2.5000000000000D+00  0.0000000000000D+00  0.0000000000000D+00
   252  2.5100000000000D+00  0.0000000000000D+00  0.0000000000000D+00
   253  2.5200000000000D+00  0.0000000000000D+00  0.0000000000000D+00
   254  2.5300000000000D+00  0.0000000000000D+00  0.0000000000000D+00
   255  2.5400000000000D+00  0.0000000000000D+00  0.0000000000000D+00
   256  2.5500000000000D+00  0.0000000000000D+00  0.0000000000000D+00
   257  2.5600000000000D+00  0.0000000000000D+00  0.0000000000000D+00
   258  2.5700000000000D+00  0.0000000000000D+00  0.0000000000000D+00
   259  2.5800000000000D+00  0.0000000000000D+00  0.0000000000000D+00
   260  2.5900000000000D+00  0.0000000000000D+00  0.0000000000000D+00
   261  2.6000000000000D+00  0.0000000000000D+00  0.0000000000000D+00
   262  2.6100000000000D+00  0.0000000000000D+00  0.0000000000000D+00
   263  2.6200000000000D+00  0.0000000000000D+00  0.0000000000000D+00
   264  2.6300000000000D+00  0.0000000000000D+00  0.0000000000000D+00
   265  2.6400000000000D+00  0.0000000000000D+00  0.0000000000000D+00
   266  2.6500000000000D+00  0.0000000000000D+00  0.0000000000000D+00
   267  2.6600000000000D+00  0.0000000000000D+00  0.0000000000000D+00
   268  2.6700000000000D+00  0.0000000000000D+00  0.0000000000000D+00
   269  2.6800000000000D+00  0.0000000000000D+00  0.0000000000000D+00
   270  2.6900000000000D+00  0.0000000000000D+00  0.0000000000000D+00
   271  2.7000000000000D+00  0.0000000000000D+00  0.0000000000000D+00
   272  2.7100000000000D+00  0.0000000000000D+00  0.0000000000000D+00
   273  2.7200000000000D+00  0.0000000000000D+00  0.0000000000000D+00
   274  2.7300000000000D+00  0.0000000000000D+00  0.0000000000000D+00
   275  2.7400000000000D+00  0.0000000000000D+00  0.0000000000000D+00
   276  2.7500000000000D+00  0.0000000000000D+00  0.0000000000000D+00
   277  2.7600000000000D+00  0.0000000000000D+00  0.0000000000000D+00
   278  2.7700000000000D+00  0.0000000000000D+00  0.0000000000000D+00
   279  2.7800000000000D+00  0.0000000000000D+00  0.0000000000000D+00
   280  2.7900000000000D+00  0.0000000000000D+00  0.0000000000000D+00
   281  2.8000000000000D+00  0.0000000000000D+00  0.0000000000000D+00
   282  2.8100000000000D+00  0.0000000000000D+00  0.0000000000000D+00
   283  2.8200000000000D+00  0.0000000000000D+00  0.0000000000000D+00
   284  2.8300000000000D+00  0.0000000000000D+00  0.0000000000000D+00
   285  2.8400000000000D+00  0.0000000000000D+00  0.0000000000000D+00
   286  2.8500000000000D+00  0.0000000000000D+00  0.0000000000000D+00
   287  2.8600000000000D+00  0.0000000000000D+00  0.0000000000000D+00
   288  2.8700000000000D+00  0.0000000000000D+00  0.0000000000000D+00
   289  2.8800000000000D+00  0.0000000000000D+00  0.0000000000000D+00
   290  2.8900000000000D+00  0.0000000000000D+00  0.0000000000000D+00
   291  2.9000000000000D+00  0.0000000000000D+00  0.0000000000000D+00
   292  2.9100000000000D+00  0.0000000000000D+00  0.0000000000000D+00
   293  2.9200000000000D+00  0.0000000000000D+00  0.0000000000000D+00
   294  2.9300000000000D+00  0.0000000000000D+00  0.0000000000000D+00
   295  2.9400000000000D+00  0.0000000000000D+00  0.0000000000000D+00
   296  2.9500000000000D+00  0.0000000000000D+00  0.0000000000000D+00
   297  2.9600000000000D+00  0.0000000000000D+00  0.0000000000000D+00
   298  2.9700000000000D+00  0.0000000000000D+00  0.0000000000000D+00
   299  2.9800000000000D+00  0.0000000000000D+00  0.0000000000000D+00
   300  2.9900000000000D+00  0.0000000000000D+00  0.0000000000000D+00
   301  3.0000000000000D+00  0.0000000000000D+00  0.0000000000000D+00
   302  3.0100000000000D+00  0.0000000000000D+00  0.0000000000000D+00
   303  3.0200000000000D+00  0.0000000000000D+00  0.0000000000000D+00
   304  3.0300000000000D+00  0.0000000000000D+00  0.0000000000000D+00
   305  3.0400000000000D+00  0.0000000000000D+00  0.0000000000000D+00
   306  3.0500000000000D+00  0.0000000000000D+00  0.0000000000000D+00
   307  3.0600000000000D+00  0.0000000000000D+00  0.0000000000000D+00
   308  3.0700000000000D+00  0.0000000000000D+00  0.0000000000000D+00
   309  3.0800000000000D+00  0.0000000000000D+00  0.0000000000000D+00
   310  3.0900000000000D+00  0.0000000000000D+00  0.0000000000000D+00
   311  3.1000000000000D+00  0.0000000000000D+00  0.0000000000000D+00
   312  3.1100000000000D+00  0.0000000000000D+00  0.0000000000000D+00
   313  3.1200000000000D+00  0.0000000000000D+00  0.0000000000000D+00
   314  3.1300000000000D+00  0.0000000000000D+00  0.0000000000000D+00
   315  3.1400000000000D+00  0.0000000000000D+00  0.0000000000000D+00
   316  3.1500000000000D+00  0.0000000000000D+00  0.0000000000000D+00
   317  3.1600000000000D+00  0.0000000000000D+00  0.0000000000000D+00
   318  3.1700000000000D+00  0.0000000000000D+00  0.0000000000000D+00
   319  3.1800000000000D+00  0.0000000000000D+00  0.0000000000000D+00
   320  3.1900000000000D+00  0.0000000000000D+00  0.0000000000000D+00
   321  3.2000000000000D+00  0.0000000000000D+00  0.0000000000000D+00
   322  3.2100000000000D+00  0.0000000000000D+00  0.0000000000000D+00
   323  3.2200000000000D+00  0.0000000000000D+00  0.0000000000000D+00
   324  3.2300000000000D+00  0.0000000000000D+00  0.0000000000000D+00
   325  3.2400000000000D+00  0.0000000000000D+00  0.0000000000000D+00
   326  3.2500000000000D+00  0.0000000000000D+00  0.0000000000000D+00
   327  3.2600000000000D+00  0.0000000000000D+00  0.0000000000000D+00
   328  3.2700000000000D+00  0.0000000000000D+00  0.0000000000000D+00
   329  3.2800000000000D+00  0.0000000000000D+00  0.0000000000000D+00
   330  3.2900000000000D+00  0.0000000000000D+00  0.0000000000000D+00
   331  3.3000000000000D+00  0.0000000000000D+00  0.0000000000000D+00
   332  3.3100000000000D+00  0.0000000000000D+00  0.0000000000000D+00
   333  3.3200000000000D+00  0.0000000000000D+00  0.0000000000000D+00
   334  3.3300000000000D+00  0.0000000000000D+00  0.0000000000000D+00
   335  3.3400000000000D+00  0.0000000000000D+00  0.0000000000000D+00
   336  3.3500000000000D+00  0.0000000000000D+00  0.0000000000000D+00
   337  3.3600000000000D+00  0.0000000000000D+00  0.0000000000000D+00
   338  3.3700000000000D+00  0.0000000000000D+00  0.0000000000000D+00
   339  3.3800000000000D+00  0.0000000000000D+00  0.0000000000000D+00
   340  3.3900000000000D+00  0.0000000000000D+00  0.0000000000000D+00
   341  3.4000000000000D+00  0.0000000000000D+00  0.0000000000000D+00
   342  3.4100000000000D+00  0.0000000000000D+00  0.0000000000000D+00
   343  3.4200000000000D+00  0.0000000000000D+00  0.0000000000000D+00
   344  3.4300000000000D+00  0.0000000000000D+00  0.0000000000000D+00
   345  3.4400000000000D+00  0.0000000000000D+00  0.0000000000000D+00
   346  3.4500000000000D+00  0.0000000000000D+00  0.0000000000000D+00
   347  3.4600000000000D+00  0.0000000000000D+00  0.0000000000000D+00
   348  3.4700000000000D+00  0.0000000000000D+00  0.0000000000000D+00
   349  3.4800000000000D+00  0.0000000000000D+00  0.0000000000000D+00
   350  3.4900000000000D+00  0.0000000000000D+00  0.0000000000000D+00
   351  3.5000000000000D+00  0.0000000000000D+00  0.0000000000000D+00
   352  3.5100000000000D+00  0.0000000000000D+00  0.0000000000000D+00
   353  3.5200000000000D+00  0.0000000000000D+00  0.0000000000000D+00
   354  3.5300000000000D+00  0.0000000000000D+00  0.0000000000000D+00
   355  3.5400000000000D+00  0.0000000000000D+00  0.0000000000000D+00
   356  3.5500000000000D+00  0.0000000000000D+00  0.0000000000000D+00
   357  3.5600000000000D+00  0.0000000000000D+00  0.0000000000000D+00
   358  3.5700000000000D+00  0.0000000000000D+00  0.0000000000000D+00
   359  3.5800000000000D+00  0.0000000000000D+00  0.0000000000000D+00
   360  3.5900000000000D+00  0.0000000000000D+00  0.0000000000000D+00
   361  3.6000000000000D+00  0.0000000000000D+00  0.0000000000000D+00
   362  3.6100000000000D+00  0.0000000000000D+00  0.0000000000000D+00
   363  3.6200000000000D+00  0.0000000000000D+00  0.0000000000000D+00
   364  3.6300000000000D+00  0.0000000000000D+00  0.0000000000000D+00
   365  3.6400000000000D+00  0.0000000000000D+00  0.0000000000000D+00
   366  3.6500000000000D+00  0.0000000000000D+00  0.0000000000000D+00
   367  3.6600000000000D+00  0.0000000000000D+00  0.0000000000000D+00
   368  3.6700000000000D+00  0.0000000000000D+00  0.0000000000000D+00
   369  3.6800000000000D+00  0.0000000000000D+00  0.0000000000000D+00
   370  3.6900000000000D+00  0.0000000000000D+00  0.0000000000000D+00
   371  3.7000000000000D+00  0.0000000000000D+00  0.0000000000000D+00
   372  3.7100000000000D+00  0.0000000000000D+00  0.0000000000000D+00
   373  3.7200000000000D+00  0.0000000000000D+00  0.0000000000000D+00
   374  3.7300000000000D+00  0.0000000000000D+00  0.0000000000000D+00
   375  3.7400000000000D+00  0.0000000000000D+00  0.0000000000000D+00
   376  3.7500000000000D+00  0.0000000000000D+00  0.0000000000000D+00
   377  3.7600000000000D+00  0.0000000000000D+00  0.0000000000000D+00
   378  3.7700000000000D+00  0.0000000000000D+00  0.0000000000000D+00
   379  3.7800000000000D+00  0.0000000000000D+00  0.0000000000000D+00
   380  3.7900000000000D+00  0.0000000000000D+00  0.0000000000000D+00
   381  3.8000000000000D+00  0.0000000000000D+00  0.0000000000000D+00
   382  3.8100000000000D+00  0.0000000000000D+00  0.0000000000000D+00
   383  3.8200000000000D+00  0.0000000000000D+00  0.0000000000000D+00
   384  3.8300000000000D+00  0.0000000000000D+00  0.0000000000000D+00
   385  3.8400000000000D+00  0.0000000000000D+00  0.0000000000000D+00
   386  3.8500000000000D+00  0.0000000000000D+00  0.0000000000000D+00
   387  3.8600000000000D+00  0.0000000000000D+00  0.0000000000000D+00
   388  3.8700000000000D+00  0.0000000000000D+00  0.0000000000000D+00
   389  3.8800000000000D+00  0.0000000000000D+00  0.0000000000000D+00
   390  3.8900000000000D+00  0.0000000000000D+00  0.0000000000000D+00
   391  3.9000000000000D+00  0.0000000000000D+00  0.0000000000000D+00
   392  3.9100000000000D+00  0.0000000000000D+00  0.0000000000000D+00
   393  3.9200000000000D+00  0.0000000000000D+00  0.0000000000000D+00
   394  3.9300000000000D+00  0.0000000000000D+00  0.0000000000000D+00
   395  3.9400000000000D+00  0.0000000000000D+00  0.0000000000000D+00
   396  3.9500000000000D+00  0.0000000000000D+00  0.0000000000000D+00
   397  3.9600000000000D+00  0.0000000000000D+00  0.0000000000000D+00
   398  3.9700000000000D+00  0.0000000000000D+00  0.0000000000000D+00
   399  3.9800000000000D+00  0.0000000000000D+00  0.0000000000000D+00
   400  3.9900000000000D+00  0.0000000000000D+00  0.0000000000000D+00
   401  4.0000000000000D+00  0.0000000000000D+00  0.0000000000000D+00
   402  4.0100000000000D+00  0.0000000000000D+00  0.0000000000000D+00
   403  4.0200000000000D+00  0.0000000000000D+00  0.0000000000000D+00
   404  4.0300000000000D+00  0.0000000000000D+00  0.0000000000000D+00
   405  4.0400000000000D+00  0.0000000000000D+00  0.0000000000000D+00
   406  4.0500000000000D+00  0.0000000000000D+00  0.0000000000000D+00
   407  4.0600000000000D+00  0.0000000000000D+00  0.0000000000000D+00
   408  4.0700000000000D+00  0.0000000000000D+00  0.0000000000000D+00
   409  4.0800000000000D+00  0.0000000000000D+00  0.0000000000000D+00
   410  4.0900000000000D+00  0.0000000000000D+00  0.0000000000000D+00
   411  4.1000000000000D+00  0.0000000000000D+00  0.0000000000000D+00
   412  4.1100000000000D+00  0.0000000000000D+00  0.0000000000000D+00
   413  4.1200000000000D+00  0.0000000000000D+00  0.0000000000000D+00
   414  4.1300000000000D+00  0.0000000000000D+00  0.0000000000000D+00
   415  4.1400000000000D+00  0.0000000000000D+00  0.0000000000000D+00
   416  4.1500000000000D+00  0.0000000000000D+00  0.0000000000000D+00
   417  4.1600000000000D+00  0.0000000000000D+00  0.0000000000000D+00
   418  4.1700000000000D+00  0.0000000000000D+00  0.0000000000000D+00
   419  4.1800000000000D+00  0.0000000000000D+00  0.0000000000000D+00
   420  4.1900000000000D+00  0.0000000000000D+00  0.0000000000000D+00
   421  4.2000000000000D+00  0.0000000000000D+00  0.0000000000000D+00
   422  4.2100000000000D+00  0.0000000000000D+00  0.0000000000000D+00