Sn    ONCVPSP-3.3.0  r_core=   2.27326   2.62311   3.13707
     50.0000      4.0000      220408    zatom,zion,pspd
     8       2   2     4   600     0    pspcod,pspxc,lmax,lloc,mmax,r2well
  5.99000000  0.00000000  0.00000000    rchrg fchrg qchrg
     2     2     2     0     0    nproj
     1     1           extension_switch
   0                         4.4982379639110D+00  5.6156358267131D-01
     1  0.0000000000000D+00  1.4273998649728D-12 -1.4039686080380D-11
     2  1.0000000000000D-02  1.4599899474109D-02  1.6872174937440D-02
     3  2.0000000000000D-02  2.9211070226606D-02  3.3665626363405D-02
     4  3.0000000000000D-02  4.3844733418922D-02  5.0301928715466D-02
     5  4.0000000000000D-02  5.8512010117007D-02  6.6703251290226D-02
     6  5.0000000000000D-02  7.3223871589319D-02  8.2792653078698D-02
     7  6.0000000000000D-02  8.7991090018684D-02  9.8494374498596D-02
     8  7.0000000000000D-02  1.0282418976433D-01  1.1373412500559D-01
     9  8.0000000000000D-02  1.1773339930894D-01  1.2843936557961D-01
    10  9.0000000000000D-02  1.3272860402397D-01  1.4253958509962D-01
    11  1.0000000000000D-01  1.4781929988394D-01  1.5596656964120D-01
    12  1.1000000000000D-01  1.6301454825865D-01  1.6865466375524D-01
    13  1.2000000000000D-01  1.7832293190878D-01  1.8054102281324D-01
    14  1.3000000000000D-01  1.9375251230762D-01  1.9156585553536D-01
    15  1.4000000000000D-01  2.0931078840835D-01  2.0167265585057D-01
    16  1.5000000000000D-01  2.2500465697211D-01  2.1080842327449D-01
    17  1.6000000000000D-01  2.4084037456864D-01  2.1892387103000D-01
    18  1.7000000000000D-01  2.5682352135639D-01  2.2597362117697D-01
    19  1.8000000000000D-01  2.7295896674499D-01  2.3191638606208D-01
    20  1.9000000000000D-01  2.8925083703752D-01  2.3671513544640D-01
    21  2.0000000000000D-01  3.0570248514538D-01  2.4033724871684D-01
    22  2.1000000000000D-01  3.2231646246297D-01  2.4275465163910D-01
    23  2.2000000000000D-01  3.3909449298386D-01  2.4394393716214D-01
    24  2.3000000000000D-01  3.5603744973434D-01  2.4388646983886D-01
    25  2.4000000000000D-01  3.7314533359426D-01  2.4256847348371D-01
    26  2.5000000000000D-01  3.9041725456898D-01  2.3998110174544D-01
    27  2.6000000000000D-01  4.0785141556963D-01  2.3612049133156D-01
    28  2.7000000000000D-01  4.2544509875282D-01  2.3098779768068D-01
    29  2.8000000000000D-01  4.4319465446390D-01  2.2458921293920D-01
    30  2.9000000000000D-01  4.6109549282154D-01  2.1693596615942D-01
    31  3.0000000000000D-01  4.7914207797403D-01  2.0804430569748D-01
    32  3.1000000000000D-01  4.9732792505143D-01  1.9793546385062D-01
    33  3.2000000000000D-01  5.1564559983019D-01  1.8663560383470D-01
    34  3.3000000000000D-01  5.3408672111997D-01  1.7417574926336D-01
    35  3.4000000000000D-01  5.5264196587560D-01  1.6059169635138D-01
    36  3.5000000000000D-01  5.7130107702959D-01  1.4592390912366D-01
    37  3.6000000000000D-01  5.9005287403394D-01  1.3021739797079D-01
    38  3.7000000000000D-01  6.0888526609266D-01  1.1352158194957D-01
    39  3.8000000000000D-01  6.2778526805976D-01  9.5890135283323D-02
    40  3.9000000000000D-01  6.4673901897003D-01  7.7380818571824D-02
    41  4.0000000000000D-01  6.6573180316367D-01  5.8055295273952D-02
    42  4.1000000000000D-01  6.8474807395865D-01  3.7978934077505D-02
    43  4.2000000000000D-01  7.0377147981805D-01  1.7220597820050D-02
    44  4.3000000000000D-01  7.2278489295353D-01 -4.1475803283337D-03
    45  4.4000000000000D-01  7.4177044029911D-01 -2.6050432664660D-02
    46  4.5000000000000D-01  7.6070953678374D-01 -4.8410003937228D-02
    47  4.6000000000000D-01  7.7958292082488D-01 -7.1145808676849D-02
    48  4.7000000000000D-01  7.9837069195952D-01 -9.4175098001312D-02
    49  4.8000000000000D-01  8.1705235052346D-01 -1.1741313498520D-01
    50  4.9000000000000D-01  8.3560683928433D-01 -1.4077347765692D-01
    51  5.0000000000000D-01  8.5401258692860D-01 -1.6416826865699D-01
    52  5.1000000000000D-01  8.7224755329798D-01 -1.8750853056806D-01
    53  5.2000000000000D-01  8.9028927626593D-01 -2.1070446590604D-01
    54  5.3000000000000D-01  9.0811492014070D-01 -2.3366576074459D-01
    55  5.4000000000000D-01  9.2570132547721D-01 -2.5630189093172D-01
    56  5.5000000000000D-01  9.4302506017627D-01 -2.7852242984687D-01
    57  5.6000000000000D-01  9.6006247174623D-01 -3.0023735664066D-01
    58  5.7000000000000D-01  9.7678974059892D-01 -3.2135736389665D-01
    59  5.8000000000000D-01  9.9318293424910D-01 -3.4179416365517D-01
    60  5.9000000000000D-01  1.0092180622838D+00 -3.6146079074428D-01
    61  6.0000000000000D-01  1.0248711319660D+00 -3.8027190237082D-01
    62  6.1000000000000D-01  1.0401182043357D+00 -3.9814407293665D-01
    63  6.2000000000000D-01  1.0549354506683D+00 -4.1499608306093D-01
    64  6.3000000000000D-01  1.0692992091519D+00 -4.3074920180796D-01
    65  6.4000000000000D-01  1.0831860416419D+00 -4.4532746114352D-01
    66  6.5000000000000D-01  1.0965727903506D+00 -4.5865792166800D-01
    67  6.6000000000000D-01  1.1094366343335D+00 -4.7067092870487D-01
    68  6.7000000000000D-01  1.1217551456280D+00 -4.8130035785536D-01
    69  6.8000000000000D-01  1.1335063449068D+00 -4.9048384916611D-01
    70  6.9000000000000D-01  1.1446687565047D+00 -4.9816302909622D-01
    71  7.0000000000000D-01  1.1552214626831D+00 -5.0428371951113D-01
    72  7.1000000000000D-01  1.1651441569933D+00 -5.0879613297610D-01
    73  7.2000000000000D-01  1.1744171966070D+00 -5.1165505366912D-01
    74  7.3000000000000D-01  1.1830216534803D+00 -5.1282000328283D-01
    75  7.4000000000000D-01  1.1909393642231D+00 -5.1225539133716D-01
    76  7.5000000000000D-01  1.1981529785473D+00 -5.0993064937849D-01
    77  7.6000000000000D-01  1.2046460061717D+00 -5.0582034859707D-01
    78  7.7000000000000D-01  1.2104028620642D+00 -4.9990430045261D-01
    79  7.8000000000000D-01  1.2154089099054D+00 -4.9216763995657D-01
    80  7.9000000000000D-01  1.2196505036649D+00 -4.8260089132127D-01
    81  8.0000000000000D-01  1.2231150271809D+00 -4.7120001574628D-01
    82  8.1000000000000D-01  1.2257909316446D+00 -4.5796644117661D-01
    83  8.2000000000000D-01  1.2276677708904D+00 -4.4290707392923D-01
    84  8.3000000000000D-01  1.2287362344022D+00 -4.2603429214872D-01
    85  8.4000000000000D-01  1.2289881779491D+00 -4.0736592111641D-01
    86  8.5000000000000D-01  1.2284166517706D+00 -3.8692519050137D-01
    87  8.6000000000000D-01  1.2270159262375D+00 -3.6474067370474D-01
    88  8.7000000000000D-01  1.2247815149192D+00 -3.4084620951248D-01
    89  8.8000000000000D-01  1.2217101949975D+00 -3.1528080633318D-01
    90  8.9000000000000D-01  1.2178000249686D+00 -2.8808852935958D-01
    91  9.0000000000000D-01  1.2130503595870D+00 -2.5931837105215D-01
    92  9.1000000000000D-01  1.2074618620070D+00 -2.2902410540189D-01
    93  9.2000000000000D-01  1.2010365130865D+00 -1.9726412648667D-01
    94  9.3000000000000D-01  1.1937776178256D+00 -1.6410127189083D-01
    95  9.4000000000000D-01  1.1856898089155D+00 -1.2960263161046D-01
    96  9.5000000000000D-01  1.1767790473848D+00 -9.3839343118635D-02
    97  9.6000000000000D-01  1.1670526203339D+00 -5.6886373312580D-02
    98  9.7000000000000D-01  1.1565191357565D+00 -1.8822288110979D-02
    99  9.8000000000000D-01  1.1451885144544D+00  2.0270989486965D-02
   100  9.9000000000000D-01  1.1330719790573D+00  6.0308432029226D-02
   101  1.0000000000000D+00  1.1201820401681D+00  1.0120217003668D-01
   102  1.0100000000000D+00  1.1065324796596D+00  1.4286176330446D-01
   103  1.0200000000000D+00  1.0921383311556D+00  1.8519448012591D-01
   104  1.0300000000000D+00  1.0770158577362D+00  2.2810558345887D-01
   105  1.0400000000000D+00  1.0611825269143D+00  2.7149862303198D-01
   106  1.0500000000000D+00  1.0446569829350D+00  3.1527573236685D-01
   107  1.0600000000000D+00  1.0274590164569D+00  3.5933792967804D-01
   108  1.0700000000000D+00  1.0096095316820D+00  4.0358542159950D-01
   109  1.0800000000000D+00  9.9113051100311D-01  4.4791790867865D-01
   110  1.0900000000000D+00  9.7204497724748D-01  4.9223489157481D-01
   111  1.1000000000000D+00  9.5237695359770D-01  5.3643597689794D-01
   112  1.1100000000000D+00  9.3215142127867D-01  5.8042118162775D-01
   113  1.1200000000000D+00  9.1139427510316D-01  6.2409123506090D-01
   114  1.1300000000000D+00  8.9013227697397D-01  6.6734787724580D-01
   115  1.1400000000000D+00  8.6839300744497D-01  7.1009415287740D-01
   116  1.1500000000000D+00  8.4620481544822D-01  7.5223469964698D-01
   117  1.1600000000000D+00  8.2359676629840D-01  7.9367603006370D-01
   118  1.1700000000000D+00  8.0059858808917D-01  8.3432680579025D-01
   119  1.1800000000000D+00  7.7724061660007D-01  8.7409810356319D-01
   120  1.1900000000000D+00  7.5355373883597D-01  9.1290367180656D-01
   121  1.2000000000000D+00  7.2956933532411D-01  9.5066017708749D-01
   122  1.2100000000000D+00  7.0531922129564D-01  9.8728743958425D-01
   123  1.2200000000000D+00  6.8083558688217D-01  1.0227086568023D+00
   124  1.2300000000000D+00  6.5615093645934D-01  1.0568506148132D+00
   125  1.2400000000000D+00  6.3129802727082D-01  1.0896438863306D+00
   126  1.2500000000000D+00  6.0630980746834D-01  1.1210230149909D+00
   127  1.2600000000000D+00  5.8121935370408D-01  1.1509266852798D+00
   128  1.2700000000000D+00  5.5605980841239D-01  1.1792978775749D+00
   129  1.2800000000000D+00  5.3086431691879D-01  1.2060840078316D+00
   130  1.2900000000000D+00  5.0566596451398D-01  1.2312370515348D+00
   131  1.3000000000000D+00  4.8049771363039D-01  1.2547136515574D+00
   132  1.3100000000000D+00  4.5539234125908D-01  1.2764752096315D+00
   133  1.3200000000000D+00  4.3038237674259D-01  1.2964879612510D+00
   134  1.3300000000000D+00  4.0550004007982D-01  1.3147230338151D+00
   135  1.3400000000000D+00  3.8077718087723D-01  1.3311564879201D+00
   136  1.3500000000000D+00  3.5624521807692D-01  1.3457693418206D+00
   137  1.3600000000000D+00  3.3193508059449D-01  1.3585475790180D+00
   138  1.3700000000000D+00  3.0787714899324D-01  1.3694821391316D+00
   139  1.3800000000000D+00  2.8410119831894D-01  1.3785688922209D+00
   140  1.3900000000000D+00  2.6063634222220D-01  1.3858085967077D+00
   141  1.4000000000000D+00  2.3751097848253D-01  1.3912068412874D+00
   142  1.4100000000000D+00  2.1475273605455D-01  1.3947739710895D+00
   143  1.4200000000000D+00  1.9238842374889D-01  1.3965249985114D+00
   144  1.4300000000000D+00  1.7044398065145D-01  1.3964794992402D+00
   145  1.4400000000000D+00  1.4894442839620D-01  1.3946614938532D+00
   146  1.4500000000000D+00  1.2791382537993D-01  1.3910993157065D+00
   147  1.4600000000000D+00  1.0737522302536D-01  1.3858254656042D+00
   148  1.4700000000000D+00  8.7350624179679D-02  1.3788764539746D+00
   149  1.4800000000000D+00  6.7860943731970D-02  1.3702926312616D+00
   150  1.4900000000000D+00  4.8925971543445D-02  1.3601180072069D+00
   151  1.5000000000000D+00  3.0564337747155D-02  1.3484000599304D+00
   152  1.5100000000000D+00  1.2793480513662D-02  1.3351895354764D+00
   153  1.5200000000000D+00 -4.3703836761852D-03  1.3205402388198D+00
   154  1.5300000000000D+00 -2.0912287171030D-02  1.3045088170989D+00
   155  1.5400000000000D+00 -3.6818535657949D-02  1.2871545360444D+00
   156  1.5500000000000D+00 -5.2076729989154D-02  1.2685390504930D+00
   157  1.5600000000000D+00 -6.6675785274939D-02  1.2487261699319D+00
   158  1.5700000000000D+00 -8.0605947223590D-02  1.2277816200275D+00
   159  1.5800000000000D+00 -9.3858805667392D-02  1.2057728010933D+00
   160  1.5900000000000D+00 -1.0642730528805D-01  1.1827685444502D+00
   161  1.6000000000000D+00 -1.1830575347329D-01  1.1588388676747D+00
   162  1.6100000000000D+00 -1.2948982534488D-01  1.1340547296322D+00
   163  1.6200000000000D+00 -1.3997656589285D-01  1.1084877863406D+00
   164  1.6300000000000D+00 -1.4976438927006D-01  1.0822101484827D+00
   165  1.6400000000000D+00 -1.5885307519685D-01  1.0552941416363D+00
   166  1.6500000000000D+00 -1.6724376253561D-01  1.0278120699653D+00
   167  1.6600000000000D+00 -1.7493894000324D-01  9.9983598443195D-01
   168  1.6700000000000D+00 -1.8194243408664D-01  9.7143745619339D-01
   169  1.6800000000000D+00 -1.8825939414570D-01  9.4268735621716D-01
   170  1.6900000000000D+00 -1.9389627477634D-01  9.1365564167877D-01
   171  1.7000000000000D+00 -1.9886081543096D-01  8.8441115015158D-01
   172  1.7100000000000D+00 -2.0316201737975D-01  8.5502140201667D-01
   173  1.7200000000000D+00 -2.0681011801850D-01  8.2555241209672D-01
   174  1.7300000000000D+00 -2.0981656262090D-01  7.9606851075412D-01
   175  1.7400000000000D+00 -2.1219397354476D-01  7.6663217549315D-01
   176  1.7500000000000D+00 -2.1395611700815D-01  7.3730387304355D-01
   177  1.7600000000000D+00 -2.1511786744387D-01  7.0814191306875D-01
   178  1.7700000000000D+00 -2.1569516956986D-01  6.7920231311852D-01
   179  1.7800000000000D+00 -2.1570499817850D-01  6.5053867615969D-01
   180  1.7900000000000D+00 -2.1516531580602D-01  6.2220207984791D-01
   181  1.8000000000000D+00 -2.1409502827930D-01  5.9424097911312D-01
   182  1.8100000000000D+00 -2.1251393831699D-01  5.6670112081091D-01
   183  1.8200000000000D+00 -2.1044269719122D-01  5.3962547204961D-01
   184  1.8300000000000D+00 -2.0790275462114D-01  5.1305416085598D-01
   185  1.8400000000000D+00 -2.0491630693322D-01  4.8702443044622D-01
   186  1.8500000000000D+00 -2.0150624363690D-01  4.6157060603702D-01
   187  1.8600000000000D+00 -1.9769609248858D-01  4.3672407481666D-01
   188  1.8700000000000D+00 -1.9350996316409D-01  4.1251327853651D-01
   189  1.8800000000000D+00 -1.8897248965095D-01  3.8896371847990D-01
   190  1.8900000000000D+00 -1.8410877145333D-01  3.6609797298756D-01
   191  1.9000000000000D+00 -1.7894431375286D-01  3.4393572630149D-01
   192  1.9100000000000D+00 -1.7350496660037D-01  3.2249380965593D-01
   193  1.9200000000000D+00 -1.6781686329628D-01  3.0178625257747D-01
   194  1.9300000000000D+00 -1.6190635803852D-01  2.8182434558094D-01
   195  1.9400000000000D+00 -1.5579996298390D-01  2.6261671226115D-01
   196  1.9500000000000D+00 -1.4952428482664D-01  2.4416939122799D-01
   197  1.9600000000000D+00 -1.4310596101700D-01  2.2648592680272D-01
   198  1.9700000000000D+00 -1.3657159574172D-01  2.0956746771733D-01
   199  1.9800000000000D+00 -1.2994769578544D-01  1.9341287373998D-01
   200  1.9900000000000D+00 -1.2326060638444D-01  1.7801882849693D-01
   201  2.0000000000000D+00 -1.1653644721246D-01  1.6337995891729D-01
   202  2.0100000000000D+00 -1.0980104858833D-01  1.4948895949032D-01
   203  2.0200000000000D+00 -1.0307988805193D-01  1.3633672118266D-01
   204  2.0300000000000D+00 -9.6398027410187D-02  1.2391246399519D-01
   205  2.0400000000000D+00 -8.9780050359129D-02  1.1220387222763D-01
   206  2.0500000000000D+00 -8.3250000840136D-02  1.0119723183152D-01
   207  2.0600000000000D+00 -7.6831322169304D-02  9.0877568879606D-02
   208  2.0700000000000D+00 -7.0546797140082D-02  8.1228788247804D-02
   209  2.0800000000000D+00 -6.4418489135924D-02  7.2233811854659D-02
   210  2.0900000000000D+00 -5.8467684385423D-02  6.3874715527065D-02
   211  2.1000000000000D+00 -5.2714835510138D-02  5.6132863408002D-02
   212  2.1100000000000D+00 -4.7179506352766D-02  4.8989039900423D-02
   213  2.1200000000000D+00 -4.1880318343427D-02  4.2423577111240D-02
   214  2.1300000000000D+00 -3.6834898362722D-02  3.6416478233253D-02
   215  2.1400000000000D+00 -3.2059828253857D-02  3.0947535597594D-02
   216  2.1500000000000D+00 -2.7570596134849D-02  2.5996442059681D-02
   217  2.1600000000000D+00 -2.3381549434205D-02  2.1542896860308D-02
   218  2.1700000000000D+00 -1.9505849950930D-02  1.7566702841083D-02
   219  2.1800000000000D+00 -1.5955430854407D-02  1.4047856391414D-02
   220  2.1900000000000D+00 -1.2740955730071D-02  1.0966629255158D-02
   221  2.2000000000000D+00 -9.8735933512103D-03  8.3047629002314D-03
   222  2.2100000000000D+00 -7.3585030271705D-03  6.0415205988733D-03
   223  2.2200000000000D+00 -5.1994526956532D-03  4.1566419736755D-03
   224  2.2300000000000D+00 -3.3946057054467D-03  2.6282332535671D-03
   225  2.2400000000000D+00 -1.9743826950781D-03  1.4542079441052D-03
   226  2.2500000000000D+00 -9.5334102143951D-04  6.2369892598136D-04
   227  2.2600000000000D+00 -3.1345417605468D-04  1.1000189176822D-04
   228  2.2700000000000D+00  1.5354708258408D-05 -1.3902459035515D-04
   229  2.2800000000000D+00  1.1394374328835D-04 -1.8101558051739D-04
   230  2.2900000000000D+00  7.9475983550748D-05 -1.0569147097831D-04
   231  2.3000000000000D+00  3.8289556943992D-06 -4.7766323887794D-06
   232  2.3100000000000D+00 -2.6914857477983D-05  3.3020794740777D-05
   233  2.3200000000000D+00 -2.0418604774253D-05  2.4438415266270D-05
   234  2.3300000000000D+00  1.3559247185790D-06 -1.8054095413012D-06
   235  2.3400000000000D+00  5.4223898265233D-06 -7.1096231580132D-06
   236  2.3500000000000D+00  3.2456624906034D-06 -4.2053091017410D-06
   237  2.3600000000000D+00 -9.3483649755968D-08  2.3541128323295D-07
   238  2.3700000000000D+00 -1.9498057106413D-07  4.9100165172754D-07
   239  2.3800000000000D+00 -8.5873029149546D-08  2.1624615684097D-07
   240  2.3900000000000D+00  0.0000000000000D+00  0.0000000000000D+00
   241  2.4000000000000D+00  0.0000000000000D+00  0.0000000000000D+00
   242  2.4100000000000D+00  0.0000000000000D+00  0.0000000000000D+00
   243  2.4200000000000D+00  0.0000000000000D+00  0.0000000000000D+00
   244  2.4300000000000D+00  0.0000000000000D+00  0.0000000000000D+00
   245  2.4400000000000D+00  0.0000000000000D+00  0.0000000000000D+00
   246  2.4500000000000D+00  0.0000000000000D+00  0.0000000000000D+00
   247  2.4600000000000D+00  0.0000000000000D+00  0.0000000000000D+00
   248  2.4700000000000D+00  0.0000000000000D+00  0.0000000000000D+00
   249  2.4800000000000D+00  0.0000000000000D+00  0.0000000000000D+00
   250  2.4900000000000D+00  0.0000000000000D+00  0.0000000000000D+00
   251  2.5000000000000D+00  0.0000000000000D+00  0.0000000000000D+00
   252  2.5100000000000D+00  0.0000000000000D+00  0.0000000000000D+00
   253  2.5200000000000D+00  0.0000000000000D+00  0.0000000000000D+00
   254  2.5300000000000D+00  0.0000000000000D+00  0.0000000000000D+00
   255  2.5400000000000D+00  0.0000000000000D+00  0.0000000000000D+00
   256  2.5500000000000D+00  0.0000000000000D+00  0.0000000000000D+00
   257  2.5600000000000D+00  0.0000000000000D+00  0.0000000000000D+00
   258  2.5700000000000D+00  0.0000000000000D+00  0.0000000000000D+00
   259  2.5800000000000D+00  0.0000000000000D+00  0.0000000000000D+00
   260  2.5900000000000D+00  0.0000000000000D+00  0.0000000000000D+00
   261  2.6000000000000D+00  0.0000000000000D+00  0.0000000000000D+00
   262  2.6100000000000D+00  0.0000000000000D+00  0.0000000000000D+00
   263  2.6200000000000D+00  0.0000000000000D+00  0.0000000000000D+00
   264  2.6300000000000D+00  0.0000000000000D+00  0.0000000000000D+00
   265  2.6400000000000D+00  0.0000000000000D+00  0.0000000000000D+00
   266  2.6500000000000D+00  0.0000000000000D+00  0.0000000000000D+00
   267  2.6600000000000D+00  0.0000000000000D+00  0.0000000000000D+00
   268  2.6700000000000D+00  0.0000000000000D+00  0.0000000000000D+00
   269  2.6800000000000D+00  0.0000000000000D+00  0.0000000000000D+00
   270  2.6900000000000D+00  0.0000000000000D+00  0.0000000000000D+00
   271  2.7000000000000D+00  0.0000000000000D+00  0.0000000000000D+00
   272  2.7100000000000D+00  0.0000000000000D+00  0.0000000000000D+00
   273  2.7200000000000D+00  0.0000000000000D+00  0.0000000000000D+00
   274  2.7300000000000D+00  0.0000000000000D+00  0.0000000000000D+00
   275  2.7400000000000D+00  0.0000000000000D+00  0.0000000000000D+00
   276  2.7500000000000D+00  0.0000000000000D+00  0.0000000000000D+00
   277  2.7600000000000D+00  0.0000000000000D+00  0.0000000000000D+00
   278  2.7700000000000D+00  0.0000000000000D+00  0.0000000000000D+00
   279  2.7800000000000D+00  0.0000000000000D+00  0.0000000000000D+00
   280  2.7900000000000D+00  0.0000000000000D+00  0.0000000000000D+00
   281  2.8000000000000D+00  0.0000000000000D+00  0.0000000000000D+00
   282  2.8100000000000D+00  0.0000000000000D+00  0.0000000000000D+00
   283  2.8200000000000D+00  0.0000000000000D+00  0.0000000000000D+00
   284  2.8300000000000D+00  0.0000000000000D+00  0.0000000000000D+00
   285  2.8400000000000D+00  0.0000000000000D+00  0.0000000000000D+00
   286  2.8500000000000D+00  0.0000000000000D+00  0.0000000000000D+00
   287  2.8600000000000D+00  0.0000000000000D+00  0.0000000000000D+00
   288  2.8700000000000D+00  0.0000000000000D+00  0.0000000000000D+00
   289  2.8800000000000D+00  0.0000000000000D+00  0.0000000000000D+00
   290  2.8900000000000D+00  0.0000000000000D+00  0.0000000000000D+00
   291  2.9000000000000D+00  0.0000000000000D+00  0.0000000000000D+00
   292  2.9100000000000D+00  0.0000000000000D+00  0.0000000000000D+00
   293  2.9200000000000D+00  0.0000000000000D+00  0.0000000000000D+00
   294  2.9300000000000D+00  0.0000000000000D+00  0.0000000000000D+00
   295  2.9400000000000D+00  0.0000000000000D+00  0.0000000000000D+00
   296  2.9500000000000D+00  0.0000000000000D+00  0.0000000000000D+00
   297  2.9600000000000D+00  0.0000000000000D+00  0.0000000000000D+00
   298  2.9700000000000D+00  0.0000000000000D+00  0.0000000000000D+00
   299  2.9800000000000D+00  0.0000000000000D+00  0.0000000000000D+00
   300  2.9900000000000D+00  0.0000000000000D+00  0.0000000000000D+00
   301  3.0000000000000D+00  0.0000000000000D+00  0.0000000000000D+00
   302  3.0100000000000D+00  0.0000000000000D+00  0.0000000000000D+00
   303  3.0200000000000D+00  0.0000000000000D+00  0.0000000000000D+00
   304  3.0300000000000D+00  0.0000000000000D+00  0.0000000000000D+00
   305  3.0400000000000D+00  0.0000000000000D+00  0.0000000000000D+00
   306  3.0500000000000D+00  0.0000000000000D+00  0.0000000000000D+00
   307  3.0600000000000D+00  0.0000000000000D+00  0.0000000000000D+00
   308  3.0700000000000D+00  0.0000000000000D+00  0.0000000000000D+00
   309  3.0800000000000D+00  0.0000000000000D+00  0.0000000000000D+00
   310  3.0900000000000D+00  0.0000000000000D+00  0.0000000000000D+00
   311  3.1000000000000D+00  0.0000000000000D+00  0.0000000000000D+00
   312  3.1100000000000D+00  0.0000000000000D+00  0.0000000000000D+00
   313  3.1200000000000D+00  0.0000000000000D+00  0.0000000000000D+00
   314  3.1300000000000D+00  0.0000000000000D+00  0.0000000000000D+00
   315  3.1400000000000D+00  0.0000000000000D+00  0.0000000000000D+00
   316  3.1500000000000D+00  0.0000000000000D+00  0.0000000000000D+00
   317  3.1600000000000D+00  0.0000000000000D+00  0.0000000000000D+00
   318  3.1700000000000D+00  0.0000000000000D+00  0.0000000000000D+00
   319  3.1800000000000D+00  0.0000000000000D+00  0.0000000000000D+00
   320  3.1900000000000D+00  0.0000000000000D+00  0.0000000000000D+00
   321  3.2000000000000D+00  0.0000000000000D+00  0.0000000000000D+00
   322  3.2100000000000D+00  0.0000000000000D+00  0.0000000000000D+00
   323  3.2200000000000D+00  0.0000000000000D+00  0.0000000000000D+00
   324  3.2300000000000D+00  0.0000000000000D+00  0.0000000000000D+00
   325  3.2400000000000D+00  0.0000000000000D+00  0.0000000000000D+00
   326  3.2500000000000D+00  0.0000000000000D+00  0.0000000000000D+00
   327  3.2600000000000D+00  0.0000000000000D+00  0.0000000000000D+00
   328  3.2700000000000D+00  0.0000000000000D+00  0.0000000000000D+00
   329  3.2800000000000D+00  0.0000000000000D+00  0.0000000000000D+00
   330  3.2900000000000D+00  0.0000000000000D+00  0.0000000000000D+00
   331  3.3000000000000D+00  0.0000000000000D+00  0.0000000000000D+00
   332  3.3100000000000D+00  0.0000000000000D+00  0.0000000000000D+00
   333  3.3200000000000D+00  0.0000000000000D+00  0.0000000000000D+00
   334  3.3300000000000D+00  0.0000000000000D+00  0.0000000000000D+00
   335  3.3400000000000D+00  0.0000000000000D+00  0.0000000000000D+00
   336  3.3500000000000D+00  0.0000000000000D+00  0.0000000000000D+00
   337  3.3600000000000D+00  0.0000000000000D+00  0.0000000000000D+00
   338  3.3700000000000D+00  0.0000000000000D+00  0.0000000000000D+00
   339  3.3800000000000D+00  0.0000000000000D+00  0.0000000000000D+00
   340  3.3900000000000D+00  0.0000000000000D+00  0.0000000000000D+00
   341  3.4000000000000D+00  0.0000000000000D+00  0.0000000000000D+00
   342  3.4100000000000D+00  0.0000000000000D+00  0.0000000000000D+00
   343  3.4200000000000D+00  0.0000000000000D+00  0.0000000000000D+00
   344  3.4300000000000D+00  0.0000000000000D+00  0.0000000000000D+00
   345  3.4400000000000D+00  0.0000000000000D+00  0.0000000000000D+00
   346  3.4500000000000D+00  0.0000000000000D+00  0.0000000000000D+00
   347  3.4600000000000D+00  0.0000000000000D+00  0.0000000000000D+00
   348  3.4700000000000D+00  0.0000000000000D+00  0.0000000000000D+00
   349  3.4800000000000D+00  0.0000000000000D+00  0.0000000000000D+00
   350  3.4900000000000D+00  0.0000000000000D+00  0.0000000000000D+00
   351  3.5000000000000D+00  0.0000000000000D+00  0.0000000000000D+00
   352  3.5100000000000D+00  0.0000000000000D+00  0.0000000000000D+00
   353  3.5200000000000D+00  0.0000000000000D+00  0.0000000000000D+00
   354  3.5300000000000D+00  0.0000000000000D+00  0.0000000000000D+00
   355  3.5400000000000D+00  0.0000000000000D+00  0.0000000000000D+00
   356  3.5500000000000D+00  0.0000000000000D+00  0.0000000000000D+00
   357  3.5600000000000D+00  0.0000000000000D+00  0.0000000000000D+00
   358  3.5700000000000D+00  0.0000000000000D+00  0.0000000000000D+00
   359  3.5800000000000D+00  0.0000000000000D+00  0.0000000000000D+00
   360  3.5900000000000D+00  0.0000000000000D+00  0.0000000000000D+00
   361  3.6000000000000D+00  0.0000000000000D+00  0.0000000000000D+00
   362  3.6100000000000D+00  0.0000000000000D+00  0.0000000000000D+00
   363  3.6200000000000D+00  0.0000000000000D+00  0.0000000000000D+00
   364  3.6300000000000D+00  0.0000000000000D+00  0.0000000000000D+00
   365  3.6400000000000D+00  0.0000000000000D+00  0.0000000000000D+00
   366  3.6500000000000D+00  0.0000000000000D+00  0.0000000000000D+00
   367  3.6600000000000D+00  0.0000000000000D+00  0.0000000000000D+00
   368  3.6700000000000D+00  0.0000000000000D+00  0.0000000000000D+00
   369  3.6800000000000D+00  0.0000000000000D+00  0.0000000000000D+00
   370  3.6900000000000D+00  0.0000000000000D+00  0.0000000000000D+00
   371  3.7000000000000D+00  0.0000000000000D+00  0.0000000000000D+00
   372  3.7100000000000D+00  0.0000000000000D+00  0.0000000000000D+00
   373  3.7200000000000D+00  0.0000000000000D+00  0.0000000000000D+00
   374  3.7300000000000D+00  0.0000000000000D+00  0.0000000000000D+00
   375  3.7400000000000D+00  0.0000000000000D+00  0.0000000000000D+00
   376  3.7500000000000D+00  0.0000000000000D+00  0.0000000000000D+00
   377  3.7600000000000D+00  0.0000000000000D+00  0.0000000000000D+00
   378  3.7700000000000D+00  0.0000000000000D+00  0.0000000000000D+00
   379  3.7800000000000D+00  0.0000000000000D+00  0.0000000000000D+00
   380  3.7900000000000D+00  0.0000000000000D+00  0.0000000000000D+00
   381  3.8000000000000D+00  0.0000000000000D+00  0.0000000000000D+00
   382  3.8100000000000D+00  0.0000000000000D+00  0.0000000000000D+00
   383  3.8200000000000D+00  0.0000000000000D+00  0.0000000000000D+00
   384  3.8300000000000D+00  0.0000000000000D+00  0.0000000000000D+00
   385  3.8400000000000D+00  0.0000000000000D+00  0.0000000000000D+00
   386  3.8500000000000D+00  0.0000000000000D+00  0.0000000000000D+00
   387  3.8600000000000D+00  0.0000000000000D+00  0.0000000000000D+00
   388  3.8700000000000D+00  0.0000000000000D+00  0.0000000000000D+00
   389  3.8800000000000D+00  0.0000000000000D+00  0.0000000000000D+00
   390  3.8900000000000D+00  0.0000000000000D+00  0.0000000000000D+00
   391  3.9000000000000D+00  0.0000000000000D+00  0.0000000000000D+00
   392  3.9100000000000D+00  0.0000000000000D+00  0.0000000000000D+00
   393  3.9200000000000D+00  0.0000000000000D+00  0.0000000000000D+00
   394  3.9300000000000D+00  0.0000000000000D+00  0.0000000000000D+00
   395  3.9400000000000D+00  0.0000000000000D+00  0.0000000000000D+00
   396  3.9500000000000D+00  0.0000000000000D+00  0.0000000000000D+00
   397  3.9600000000000D+00  0.0000000000000D+00  0.0000000000000D+00
   398  3.9700000000000D+00  0.0000000000000D+00  0.0000000000000D+00
   399  3.9800000000000D+00  0.0000000000000D+00  0.0000000000000D+00
   400  3.9900000000000D+00  0.0000000000000D+00  0.0000000000000D+00
   401  4.0000000000000D+00  0.0000000000000D+00  0.0000000000000D+00
   402  4.0100000000000D+00  0.0000000000000D+00  0.0000000000000D+00
   403  4.0200000000000D+00  0.0000000000000D+00  0.0000000000000D+00
   404  4.0300000000000D+00  0.0000000000000D+00  0.0000000000000D+00
   405  4.0400000000000D+00  0.0000000000000D+00  0.0000000000000D+00
   406  4.0500000000000D+00  0.0000000000000D+00  0.0000000000000D+00
   407  4.0600000000000D+00  0.0000000000000D+00  0.0000000000000D+00
   408  4.0700000000000D+00  0.0000000000000D+00  0.0000000000000D+00
   409  4.0800000000000D+00  0.0000000000000D+00  0.0000000000000D+00
   410  4.0900000000000D+00  0.0000000000000D+00  0.0000000000000D+00
   411  4.1000000000000D+00  0.0000000000000D+00  0.0000000000000D+00
   412  4.1100000000000D+00  0.0000000000000D+00  0.0000000000000D+00
   413  4.1200000000000D+00  0.0000000000000D+00  0.0000000000000D+00
   414  4.1300000000000D+00  0.0000000000000D+00  0.0000000000000D+00
   415  4.1400000000000D+00  0.0000000000000D+00  0.0000000000000D+00
   416  4.1500000000000D+00  0.0000000000000D+00  0.0000000000000D+00
   417  4.1600000000000D+00  0.0000000000000D+00  0.0000000000000D+00
   418  4.1700000000000D+00  0.0000000000000D+00  0.0000000000000D+00
   419  4.1800000000000D+00  0.0000000000000D+00  0.0000000000000D+00
   420  4.1900000000000D+00  0.0000000000000D+00  0.0000000000000D+00
   421  4.2000000000000D+00  0.0000000000000D+00  0.0000000000000D+00
   422  4.2100000000000D+00  0.0000000000000D+00  0.0000000000000D+00