Ti    ONCVPSP-3.3.0  r_core=   1.35825   1.31050   1.66360
     22.0000     12.0000      220408    zatom,zion,pspd
     8       2   2     4   600     0    pspcod,pspxc,lmax,lloc,mmax,r2well
  5.99000000  0.00000000  0.00000000    rchrg fchrg qchrg
     2     2     2     0     0    nproj
     1     1           extension_switch
   0                         1.1217743113501D+01  1.2411703850358D+00
     1  0.0000000000000D+00 -1.6106156408568D-09  5.4169269070314D-09
     2  1.0000000000000D-02  8.8713328858750D-02 -4.5696838902401D-02
     3  2.0000000000000D-02  1.7713184549712D-01 -9.0926401278695D-02
     4  3.0000000000000D-02  2.6496279568582D-01 -1.3522701092375D-01
     5  4.0000000000000D-02  3.5191751477031D-01 -1.7814810633574D-01
     6  5.0000000000000D-02  4.3771340685936D-01 -2.1925558463257D-01
     7  6.0000000000000D-02  5.2207584646295D-01 -2.5813689327480D-01
     8  7.0000000000000D-02  6.0473997865590D-01 -2.9440579200963D-01
     9  8.0000000000000D-02  6.8545239545395D-01 -3.2770671286753D-01
    10  9.0000000000000D-02  7.6397266805231D-01 -3.5771865264573D-01
    11  1.0000000000000D-01  8.4007471686098D-01 -3.8415853999375D-01
    12  1.1000000000000D-01  9.1354800383785D-01 -4.0678402784867D-01
    13  1.2000000000000D-01  9.8419853442931D-01 -4.2539567141071D-01
    14  1.3000000000000D-01  1.0518496594313D+00 -4.3983846194749D-01
    15  1.4000000000000D-01  1.1163426702332D+00 -4.5000269730233D-01
    16  1.5000000000000D-01  1.1775371841504D+00 -4.5582418088325D-01
    17  1.6000000000000D-01  1.2353113198355D+00 -4.5728375194506D-01
    18  1.7000000000000D-01  1.2895616660288D+00 -4.5440616096500D-01
    19  1.8000000000000D-01  1.3402030501130D+00 -4.4725831467007D-01
    20  1.9000000000000D-01  1.3871681160183D+00 -4.3594692562306D-01
    21  2.0000000000000D-01  1.4304067239386D+00 -4.2061561104140D-01
    22  2.1000000000000D-01  1.4698851870084D+00 -4.0144149454482D-01
    23  2.2000000000000D-01  1.5055853625194D+00 -3.7863137265387D-01
    24  2.3000000000000D-01  1.5375036173768D+00 -3.5241751495073D-01
    25  2.4000000000000D-01  1.5656496892757D+00 -3.2305317275103D-01
    26  2.5000000000000D-01  1.5900454664886D+00 -2.9080787581216D-01
    27  2.6000000000000D-01  1.6107237101692D+00 -2.5596259994283D-01
    28  2.7000000000000D-01  1.6277267436793D+00 -2.1880489031736D-01
    29  2.8000000000000D-01  1.6411051336238D+00 -1.7962402580087D-01
    30  2.9000000000000D-01  1.6509163870308D+00 -1.3870630864284D-01
    31  3.0000000000000D-01  1.6572236884383D+00 -9.6330561509053D-02
    32  3.1000000000000D-01  1.6600946995668D+00 -5.2763910027944D-02
    33  3.2000000000000D-01  1.6596004427699D+00 -8.2579238855639D-03
    34  3.3000000000000D-01  1.6558142876046D+00  3.6954816904756D-02
    35  3.4000000000000D-01  1.6488110576656D+00  8.2663671506982D-02
    36  3.5000000000000D-01  1.6386662723286D+00  1.2868235310660D-01
    37  3.6000000000000D-01  1.6254555352827D+00  1.7485076818085D-01
    38  3.7000000000000D-01  1.6092540787537D+00  2.2103624954822D-01
    39  3.8000000000000D-01  1.5901364691734D+00  2.6713416339504D-01
    40  3.9000000000000D-01  1.5681764767905D+00  3.1306788171910D-01
    41  4.0000000000000D-01  1.5434471084044D+00  3.5878812307971D-01
    42  4.1000000000000D-01  1.5160207990881D+00  4.0427167601022D-01
    43  4.2000000000000D-01  1.4859697555077D+00  4.4951953073519D-01
    44  4.3000000000000D-01  1.4533664403087D+00  4.9455445574860D-01
    45  4.4000000000000D-01  1.4182841840637D+00  5.3941806616239D-01
    46  4.5000000000000D-01  1.3807979085348D+00  5.8416744034493D-01
    47  4.6000000000000D-01  1.3409849425275D+00  6.2887135006865D-01
    48  4.7000000000000D-01  1.2989259094647D+00  6.7360617701626D-01
    49  4.8000000000000D-01  1.2547056640145D+00  7.1845159491868D-01
    50  4.9000000000000D-01  1.2084142537126D+00  7.6348610169363D-01
    51  5.0000000000000D-01  1.1601478805463D+00  8.0878248962058D-01
    52  5.1000000000000D-01  1.1100098369435D+00  8.5440334375349D-01
    53  5.2000000000000D-01  1.0581113905439D+00  9.0039665937976D-01
    54  5.3000000000000D-01  1.0045725925341D+00  9.4679166835998D-01
    55  5.4000000000000D-01  9.4952298519480D-01  9.9359496163052D-01
    56  5.5000000000000D-01  8.9310218563679D-01  1.0407869910327D+00
    57  5.6000000000000D-01  8.3546032446707D-01  1.0883190280280D+00
    58  5.7000000000000D-01  7.7675832031075D-01  1.1361106498107D+00
    59  5.8000000000000D-01  7.1716797367912D-01  1.1840478149796D+00
    60  5.9000000000000D-01  6.5687186658836D-01  1.2319815813688D+00
    61  6.0000000000000D-01  5.9606305754220D-01  1.2797275080526D+00
    62  6.1000000000000D-01  5.3494456495983D-01  1.3270657720383D+00
    63  6.2000000000000D-01  4.7372863577481D-01  1.3737420180280D+00
    64  6.3000000000000D-01  4.1263579973683D-01  1.4194689469076D+00
    65  6.4000000000000D-01  3.5189371379239D-01  1.4639286357193D+00
    66  6.5000000000000D-01  2.9173580480081D-01  1.5067755688057D+00
    67  6.6000000000000D-01  2.3239972265240D-01  1.5476403469239D+00
    68  6.7000000000000D-01  1.7412561953001D-01  1.5861340286452D+00
    69  6.8000000000000D-01  1.1715427456488D-01  1.6218530463744D+00
    70  6.9000000000000D-01  6.1725086377694D-02  1.6543846281907D+00
    71  7.0000000000000D-01  8.0739589359033D-03  1.6833126465386D+00
    72  7.1000000000000D-01 -4.3568891278241D-02  1.7082238058365D+00
    73  7.2000000000000D-01 -9.2981176620956D-02  1.7287140733676D+00
    74  7.3000000000000D-01 -1.3995079630089D-01  1.7443952516875D+00
    75  7.4000000000000D-01 -1.8427807797785D-01  1.7549015862058D+00
    76  7.5000000000000D-01 -2.2577796918031D-01  1.7598962987503D+00
    77  7.6000000000000D-01 -2.6428214462417D-01  1.7590779368379D+00
    78  7.7000000000000D-01 -2.9964099591527D-01  1.7521864291219D+00
    79  7.8000000000000D-01 -3.3172547107460D-01  1.7390087400587D+00
    80  7.9000000000000D-01 -3.6042873282533D-01  1.7193840212232D+00
    81  8.0000000000000D-01 -3.8566760661372D-01  1.6932081628563D+00
    82  8.1000000000000D-01 -4.0738379187531D-01  1.6604376570714D+00
    83  8.2000000000000D-01 -4.2554481306871D-01  1.6210926935675D+00
    84  8.3000000000000D-01 -4.4014469044217D-01  1.5752594195707D+00
    85  8.4000000000000D-01 -4.5120431432121D-01  1.5230913078826D+00
    86  8.5000000000000D-01 -4.5877151085415D-01  1.4648095901778D+00
    87  8.6000000000000D-01 -4.6292079156346D-01  1.4007027268572D+00
    88  8.7000000000000D-01 -4.6375278365596D-01  1.3311248996084D+00
    89  8.8000000000000D-01 -4.6139334277406D-01  1.2564935281134D+00
    90  8.9000000000000D-01 -4.5599235464766D-01  1.1772858278395D+00
    91  9.0000000000000D-01 -4.4772223685545D-01  1.0940344412866D+00
    92  9.1000000000000D-01 -4.3677615654994D-01  1.0073221902079D+00
    93  9.2000000000000D-01 -4.2336598446486D-01  9.1777601090674D-01
    94  9.3000000000000D-01 -4.0772000973335D-01  8.2606014849980D-01
    95  9.4000000000000D-01 -3.9008044392992D-01  7.3286869879689D-01
    96  9.5000000000000D-01 -3.7070074624205D-01  6.3891759795202D-01
    97  9.6000000000000D-01 -3.4984280471610D-01  5.4493617008780D-01
    98  9.7000000000000D-01 -3.2777401106700D-01  4.5165835155176D-01
    99  9.8000000000000D-01 -3.0476426848930D-01  3.5981371698193D-01
   100  9.9000000000000D-01 -2.8108297334317D-01  2.7011843722683D-01
   101  1.0000000000000D+00 -2.5699601232767D-01  1.8326630175975D-01
   102  1.0100000000000D+00 -2.3276281689234D-01  9.9919938870522D-02
   103  1.0200000000000D+00 -2.0863351612345D-01  2.0702365430416D-02
   104  1.0300000000000D+00 -1.8484622819365D-01 -5.3811005528531D-02
   105  1.0400000000000D+00 -1.6162452854464D-01 -1.2309977724942D-01
   106  1.0500000000000D+00 -1.3917513084977D-01 -1.8670528629339D-01
   107  1.0600000000000D+00 -1.1768581346434D-01 -2.4423651948617D-01
   108  1.0700000000000D+00 -9.7323620767893D-02 -2.9537513669874D-01
   109  1.0800000000000D+00 -7.8233364762673D-02 -3.3987951842378D-01
   110  1.0900000000000D+00 -6.0536447484927D-02 -3.7758777265437D-01
   111  1.1000000000000D+00 -4.4330020889321D-02 -4.0841964818240D-01
   112  1.1100000000000D+00 -2.9686494624498D-02 -4.3237732166917D-01
   113  1.1200000000000D+00 -1.6653397641472D-02 -4.4954504037137D-01
   114  1.1300000000000D+00 -5.2535934893464D-03 -4.6008762217624D-01
   115  1.1400000000000D+00  4.5141554503420D-03 -4.6424782955976D-01
   116  1.1500000000000D+00  1.2674285810202D-02 -4.6234265447560D-01
   117  1.1600000000000D+00  1.9273209186105D-02 -4.5475856746104D-01
   118  1.1700000000000D+00  2.4377787663457D-02 -4.4194580199794D-01
   119  1.1800000000000D+00  2.8073533971625D-02 -4.2441175680993D-01
   120  1.1900000000000D+00  3.0462567447736D-02 -4.0271361874351D-01
   121  1.2000000000000D+00  3.1661360064353D-02 -3.7745031889183D-01
   122  1.2100000000000D+00  3.1798310235806D-02 -3.4925394588684D-01
   123  1.2200000000000D+00  3.1011184983193D-02 -3.1878074961937D-01
   124  1.2300000000000D+00  2.9444474153337D-02 -2.8670187878312D-01
   125  1.2400000000000D+00  2.7246700963627D-02 -2.5369399749058D-01
   126  1.2500000000000D+00  2.4567734638986D-02 -2.2042993108126D-01
   127  1.2600000000000D+00  2.1556151632056D-02 -1.8756949354656D-01
   128  1.2700000000000D+00  1.8356694884509D-02 -1.5575066060156D-01
   129  1.2800000000000D+00  1.5107844138278D-02 -1.2558111828660D-01
   130  1.2900000000000D+00  1.1939647888873D-02 -9.7630721698696D-02
   131  1.3000000000000D+00  8.9715007834034D-03 -7.2423701556644D-02
   132  1.3100000000000D+00  6.3110546940696D-03 -5.0434915347896D-02
   133  1.3200000000000D+00  4.0532552370564D-03 -3.2092956624554D-02
   134  1.3300000000000D+00  2.2581639800197D-03 -1.7643014326404D-02
   135  1.3400000000000D+00  1.0011263767843D-03 -7.4940456102955D-03
   136  1.3500000000000D+00  3.5537570333943D-04 -2.0824436880926D-03
   137  1.3600000000000D+00  1.1782859987415D-04 -1.9245376999654D-04
   138  1.3700000000000D+00  2.0368743231334D-05  6.4682433076414D-05
   139  1.3800000000000D+00 -5.6442423177034D-06 -4.2550667880870D-05
   140  1.3900000000000D+00 -7.1275193290578D-07 -8.6392130185572D-06
   141  1.4000000000000D+00  1.5670035348637D-06  6.9803930206724D-06
   142  1.4100000000000D+00 -1.9341407467987D-07  4.8104558234920D-07
   143  1.4200000000000D+00 -3.0080722751751D-07  7.4814611178380D-07
   144  1.4300000000000D+00  0.0000000000000D+00  0.0000000000000D+00
   145  1.4400000000000D+00  0.0000000000000D+00  0.0000000000000D+00
   146  1.4500000000000D+00  0.0000000000000D+00  0.0000000000000D+00
   147  1.4600000000000D+00  0.0000000000000D+00  0.0000000000000D+00
   148  1.4700000000000D+00  0.0000000000000D+00  0.0000000000000D+00
   149  1.4800000000000D+00  0.0000000000000D+00  0.0000000000000D+00
   150  1.4900000000000D+00  0.0000000000000D+00  0.0000000000000D+00
   151  1.5000000000000D+00  0.0000000000000D+00  0.0000000000000D+00
   152  1.5100000000000D+00  0.0000000000000D+00  0.0000000000000D+00
   153  1.5200000000000D+00  0.0000000000000D+00  0.0000000000000D+00
   154  1.5300000000000D+00  0.0000000000000D+00  0.0000000000000D+00
   155  1.5400000000000D+00  0.0000000000000D+00  0.0000000000000D+00
   156  1.5500000000000D+00  0.0000000000000D+00  0.0000000000000D+00
   157  1.5600000000000D+00  0.0000000000000D+00  0.0000000000000D+00
   158  1.5700000000000D+00  0.0000000000000D+00  0.0000000000000D+00
   159  1.5800000000000D+00  0.0000000000000D+00  0.0000000000000D+00
   160  1.5900000000000D+00  0.0000000000000D+00  0.0000000000000D+00
   161  1.6000000000000D+00  0.0000000000000D+00  0.0000000000000D+00
   162  1.6100000000000D+00  0.0000000000000D+00  0.0000000000000D+00
   163  1.6200000000000D+00  0.0000000000000D+00  0.0000000000000D+00
   164  1.6300000000000D+00  0.0000000000000D+00  0.0000000000000D+00
   165  1.6400000000000D+00  0.0000000000000D+00  0.0000000000000D+00
   166  1.6500000000000D+00  0.0000000000000D+00  0.0000000000000D+00
   167  1.6600000000000D+00  0.0000000000000D+00  0.0000000000000D+00
   168  1.6700000000000D+00  0.0000000000000D+00  0.0000000000000D+00
   169  1.6800000000000D+00  0.0000000000000D+00  0.0000000000000D+00
   170  1.6900000000000D+00  0.0000000000000D+00  0.0000000000000D+00
   171  1.7000000000000D+00  0.0000000000000D+00  0.0000000000000D+00
   172  1.7100000000000D+00  0.0000000000000D+00  0.0000000000000D+00
   173  1.7200000000000D+00  0.0000000000000D+00  0.0000000000000D+00
   174  1.7300000000000D+00  0.0000000000000D+00  0.0000000000000D+00
   175  1.7400000000000D+00  0.0000000000000D+00  0.0000000000000D+00
   176  1.7500000000000D+00  0.0000000000000D+00  0.0000000000000D+00
   177  1.7600000000000D+00  0.0000000000000D+00  0.0000000000000D+00
   178  1.7700000000000D+00  0.0000000000000D+00  0.0000000000000D+00
   179  1.7800000000000D+00  0.0000000000000D+00  0.0000000000000D+00
   180  1.7900000000000D+00  0.0000000000000D+00  0.0000000000000D+00
   181  1.8000000000000D+00  0.0000000000000D+00  0.0000000000000D+00
   182  1.8100000000000D+00  0.0000000000000D+00  0.0000000000000D+00
   183  1.8200000000000D+00  0.0000000000000D+00  0.0000000000000D+00
   184  1.8300000000000D+00  0.0000000000000D+00  0.0000000000000D+00
   185  1.8400000000000D+00  0.0000000000000D+00  0.0000000000000D+00
   186  1.8500000000000D+00  0.0000000000000D+00  0.0000000000000D+00
   187  1.8600000000000D+00  0.0000000000000D+00  0.0000000000000D+00
   188  1.8700000000000D+00  0.0000000000000D+00  0.0000000000000D+00
   189  1.8800000000000D+00  0.0000000000000D+00  0.0000000000000D+00
   190  1.8900000000000D+00  0.0000000000000D+00  0.0000000000000D+00
   191  1.9000000000000D+00  0.0000000000000D+00  0.0000000000000D+00
   192  1.9100000000000D+00  0.0000000000000D+00  0.0000000000000D+00
   193  1.9200000000000D+00  0.0000000000000D+00  0.0000000000000D+00
   194  1.9300000000000D+00  0.0000000000000D+00  0.0000000000000D+00
   195  1.9400000000000D+00  0.0000000000000D+00  0.0000000000000D+00
   196  1.9500000000000D+00  0.0000000000000D+00  0.0000000000000D+00
   197  1.9600000000000D+00  0.0000000000000D+00  0.0000000000000D+00
   198  1.9700000000000D+00  0.0000000000000D+00  0.0000000000000D+00
   199  1.9800000000000D+00  0.0000000000000D+00  0.0000000000000D+00
   200  1.9900000000000D+00  0.0000000000000D+00  0.0000000000000D+00
   201  2.0000000000000D+00  0.0000000000000D+00  0.0000000000000D+00
   202  2.0100000000000D+00  0.0000000000000D+00  0.0000000000000D+00
   203  2.0200000000000D+00  0.0000000000000D+00  0.0000000000000D+00
   204  2.0300000000000D+00  0.0000000000000D+00  0.0000000000000D+00
   205  2.0400000000000D+00  0.0000000000000D+00  0.0000000000000D+00
   206  2.0500000000000D+00  0.0000000000000D+00  0.0000000000000D+00
   207  2.0600000000000D+00  0.0000000000000D+00  0.0000000000000D+00
   208  2.0700000000000D+00  0.0000000000000D+00  0.0000000000000D+00
   209  2.0800000000000D+00  0.0000000000000D+00  0.0000000000000D+00
   210  2.0900000000000D+00  0.0000000000000D+00  0.0000000000000D+00
   211  2.1000000000000D+00  0.0000000000000D+00  0.0000000000000D+00
   212  2.1100000000000D+00  0.0000000000000D+00  0.0000000000000D+00
   213  2.1200000000000D+00  0.0000000000000D+00  0.0000000000000D+00
   214  2.1300000000000D+00  0.0000000000000D+00  0.0000000000000D+00
   215  2.1400000000000D+00  0.0000000000000D+00  0.0000000000000D+00
   216  2.1500000000000D+00  0.0000000000000D+00  0.0000000000000D+00
   217  2.1600000000000D+00  0.0000000000000D+00  0.0000000000000D+00
   218  2.1700000000000D+00  0.0000000000000D+00  0.0000000000000D+00
   219  2.1800000000000D+00  0.0000000000000D+00  0.0000000000000D+00
   220  2.1900000000000D+00  0.0000000000000D+00  0.0000000000000D+00
   221  2.2000000000000D+00  0.0000000000000D+00  0.0000000000000D+00
   222  2.2100000000000D+00  0.0000000000000D+00  0.0000000000000D+00
   223  2.2200000000000D+00  0.0000000000000D+00  0.0000000000000D+00
   224  2.2300000000000D+00  0.0000000000000D+00  0.0000000000000D+00
   225  2.2400000000000D+00  0.0000000000000D+00  0.0000000000000D+00
   226  2.2500000000000D+00  0.0000000000000D+00  0.0000000000000D+00
   227  2.2600000000000D+00  0.0000000000000D+00  0.0000000000000D+00
   228  2.2700000000000D+00  0.0000000000000D+00  0.0000000000000D+00
   229  2.2800000000000D+00  0.0000000000000D+00  0.0000000000000D+00
   230  2.2900000000000D+00  0.0000000000000D+00  0.0000000000000D+00
   231  2.3000000000000D+00  0.0000000000000D+00  0.0000000000000D+00
   232  2.3100000000000D+00  0.0000000000000D+00  0.0000000000000D+00
   233  2.3200000000000D+00  0.0000000000000D+00  0.0000000000000D+00
   234  2.3300000000000D+00  0.0000000000000D+00  0.0000000000000D+00
   235  2.3400000000000D+00  0.0000000000000D+00  0.0000000000000D+00
   236  2.3500000000000D+00  0.0000000000000D+00  0.0000000000000D+00
   237  2.3600000000000D+00  0.0000000000000D+00  0.0000000000000D+00
   238  2.3700000000000D+00  0.0000000000000D+00  0.0000000000000D+00
   239  2.3800000000000D+00  0.0000000000000D+00  0.0000000000000D+00
   240  2.3900000000000D+00  0.0000000000000D+00  0.0000000000000D+00
   241  2.4000000000000D+00  0.0000000000000D+00  0.0000000000000D+00
   242  2.4100000000000D+00  0.0000000000000D+00  0.0000000000000D+00
   243  2.4200000000000D+00  0.0000000000000D+00  0.0000000000000D+00
   244  2.4300000000000D+00  0.0000000000000D+00  0.0000000000000D+00
   245  2.4400000000000D+00  0.0000000000000D+00  0.0000000000000D+00
   246  2.4500000000000D+00  0.0000000000000D+00  0.0000000000000D+00
   247  2.4600000000000D+00  0.0000000000000D+00  0.0000000000000D+00
   248  2.4700000000000D+00  0.0000000000000D+00  0.0000000000000D+00
   249  2.4800000000000D+00  0.0000000000000D+00  0.0000000000000D+00
   250  2.4900000000000D+00  0.0000000000000D+00  0.0000000000000D+00
   251  2.5000000000000D+00  0.0000000000000D+00  0.0000000000000D+00
   252  2.5100000000000D+00  0.0000000000000D+00  0.0000000000000D+00
   253  2.5200000000000D+00  0.0000000000000D+00  0.0000000000000D+00
   254  2.5300000000000D+00  0.0000000000000D+00  0.0000000000000D+00
   255  2.5400000000000D+00  0.0000000000000D+00  0.0000000000000D+00
   256  2.5500000000000D+00  0.0000000000000D+00  0.0000000000000D+00
   257  2.5600000000000D+00  0.0000000000000D+00  0.0000000000000D+00
   258  2.5700000000000D+00  0.0000000000000D+00  0.0000000000000D+00
   259  2.5800000000000D+00  0.0000000000000D+00  0.0000000000000D+00
   260  2.5900000000000D+00  0.0000000000000D+00  0.0000000000000D+00
   261  2.6000000000000D+00  0.0000000000000D+00  0.0000000000000D+00
   262  2.6100000000000D+00  0.0000000000000D+00  0.0000000000000D+00
   263  2.6200000000000D+00  0.0000000000000D+00  0.0000000000000D+00
   264  2.6300000000000D+00  0.0000000000000D+00  0.0000000000000D+00
   265  2.6400000000000D+00  0.0000000000000D+00  0.0000000000000D+00
   266  2.6500000000000D+00  0.0000000000000D+00  0.0000000000000D+00
   267  2.6600000000000D+00  0.0000000000000D+00  0.0000000000000D+00
   268  2.6700000000000D+00  0.0000000000000D+00  0.0000000000000D+00
   269  2.6800000000000D+00  0.0000000000000D+00  0.0000000000000D+00
   270  2.6900000000000D+00  0.0000000000000D+00  0.0000000000000D+00
   271  2.7000000000000D+00  0.0000000000000D+00  0.0000000000000D+00
   272  2.7100000000000D+00  0.0000000000000D+00  0.0000000000000D+00
   273  2.7200000000000D+00  0.0000000000000D+00  0.0000000000000D+00
   274  2.7300000000000D+00  0.0000000000000D+00  0.0000000000000D+00
   275  2.7400000000000D+00  0.0000000000000D+00  0.0000000000000D+00
   276  2.7500000000000D+00  0.0000000000000D+00  0.0000000000000D+00
   277  2.7600000000000D+00  0.0000000000000D+00  0.0000000000000D+00
   278  2.7700000000000D+00  0.0000000000000D+00  0.0000000000000D+00
   279  2.7800000000000D+00  0.0000000000000D+00  0.0000000000000D+00
   280  2.7900000000000D+00  0.0000000000000D+00  0.0000000000000D+00
   281  2.8000000000000D+00  0.0000000000000D+00  0.0000000000000D+00
   282  2.8100000000000D+00  0.0000000000000D+00  0.0000000000000D+00
   283  2.8200000000000D+00  0.0000000000000D+00  0.0000000000000D+00
   284  2.8300000000000D+00  0.0000000000000D+00  0.0000000000000D+00
   285  2.8400000000000D+00  0.0000000000000D+00  0.0000000000000D+00
   286  2.8500000000000D+00  0.0000000000000D+00  0.0000000000000D+00
   287  2.8600000000000D+00  0.0000000000000D+00  0.0000000000000D+00
   288  2.8700000000000D+00  0.0000000000000D+00  0.0000000000000D+00
   289  2.8800000000000D+00  0.0000000000000D+00  0.0000000000000D+00
   290  2.8900000000000D+00  0.0000000000000D+00  0.0000000000000D+00
   291  2.9000000000000D+00  0.0000000000000D+00  0.0000000000000D+00
   292  2.9100000000000D+00  0.0000000000000D+00  0.0000000000000D+00
   293  2.9200000000000D+00  0.0000000000000D+00  0.0000000000000D+00
   294  2.9300000000000D+00  0.0000000000000D+00  0.0000000000000D+00
   295  2.9400000000000D+00  0.0000000000000D+00  0.0000000000000D+00
   296  2.9500000000000D+00  0.0000000000000D+00  0.0000000000000D+00
   297  2.9600000000000D+00  0.0000000000000D+00  0.0000000000000D+00
   298  2.9700000000000D+00  0.0000000000000D+00  0.0000000000000D+00
   299  2.9800000000000D+00  0.0000000000000D+00  0.0000000000000D+00
   300  2.9900000000000D+00  0.0000000000000D+00  0.0000000000000D+00
   301  3.0000000000000D+00  0.0000000000000D+00  0.0000000000000D+00
   302  3.0100000000000D+00  0.0000000000000D+00  0.0000000000000D+00
   303  3.0200000000000D+00  0.0000000000000D+00  0.0000000000000D+00
   304  3.0300000000000D+00  0.0000000000000D+00  0.0000000000000D+00
   305  3.0400000000000D+00  0.0000000000000D+00  0.0000000000000D+00
   306  3.0500000000000D+00  0.0000000000000D+00  0.0000000000000D+00
   307  3.0600000000000D+00  0.0000000000000D+00  0.0000000000000D+00
   308  3.0700000000000D+00  0.0000000000000D+00  0.0000000000000D+00
   309  3.0800000000000D+00  0.0000000000000D+00  0.0000000000000D+00
   310  3.0900000000000D+00  0.0000000000000D+00  0.0000000000000D+00
   311  3.1000000000000D+00  0.0000000000000D+00  0.0000000000000D+00
   312  3.1100000000000D+00  0.0000000000000D+00  0.0000000000000D+00
   313  3.1200000000000D+00  0.0000000000000D+00  0.0000000000000D+00
   314  3.1300000000000D+00  0.0000000000000D+00  0.0000000000000D+00
   315  3.1400000000000D+00  0.0000000000000D+00  0.0000000000000D+00
   316  3.1500000000000D+00  0.0000000000000D+00  0.0000000000000D+00
   317  3.1600000000000D+00  0.0000000000000D+00  0.0000000000000D+00
   318  3.1700000000000D+00  0.0000000000000D+00  0.0000000000000D+00
   319  3.1800000000000D+00  0.0000000000000D+00  0.0000000000000D+00
   320  3.1900000000000D+00  0.0000000000000D+00  0.0000000000000D+00
   321  3.2000000000000D+00  0.0000000000000D+00  0.0000000000000D+00
   322  3.2100000000000D+00  0.0000000000000D+00  0.0000000000000D+00
   323  3.2200000000000D+00  0.0000000000000D+00  0.0000000000000D+00
   324  3.2300000000000D+00  0.0000000000000D+00  0.0000000000000D+00
   325  3.2400000000000D+00  0.0000000000000D+00  0.0000000000000D+00
   326  3.2500000000000D+00  0.0000000000000D+00  0.0000000000000D+00
   327  3.2600000000000D+00  0.0000000000000D+00  0.0000000000000D+00
   328  3.2700000000000D+00  0.0000000000000D+00  0.0000000000000D+00
   329  3.2800000000000D+00  0.0000000000000D+00  0.0000000000000D+00
   330  3.2900000000000D+00  0.0000000000000D+00  0.0000000000000D+00
   331  3.3000000000000D+00  0.0000000000000D+00  0.0000000000000D+00
   332  3.3100000000000D+00  0.0000000000000D+00  0.0000000000000D+00
   333  3.3200000000000D+00  0.0000000000000D+00  0.0000000000000D+00
   334  3.3300000000000D+00  0.0000000000000D+00  0.0000000000000D+00
   335  3.3400000000000D+00  0.0000000000000D+00  0.0000000000000D+00
   336  3.3500000000000D+00  0.0000000000000D+00  0.0000000000000D+00
   337  3.3600000000000D+00  0.0000000000000D+00  0.0000000000000D+00
   338  3.3700000000000D+00  0.0000000000000D+00  0.0000000000000D+00
   339  3.3800000000000D+00  0.0000000000000D+00  0.0000000000000D+00
   340  3.3900000000000D+00  0.0000000000000D+00  0.0000000000000D+00
   341  3.4000000000000D+00  0.0000000000000D+00  0.0000000000000D+00
   342  3.4100000000000D+00  0.0000000000000D+00  0.0000000000000D+00
   343  3.4200000000000D+00  0.0000000000000D+00  0.0000000000000D+00
   344  3.4300000000000D+00  0.0000000000000D+00  0.0000000000000D+00
   345  3.4400000000000D+00  0.0000000000000D+00  0.0000000000000D+00
   346  3.4500000000000D+00  0.0000000000000D+00  0.0000000000000D+00
   347  3.4600000000000D+00  0.0000000000000D+00  0.0000000000000D+00
   348  3.4700000000000D+00  0.0000000000000D+00  0.0000000000000D+00
   349  3.4800000000000D+00  0.0000000000000D+00  0.0000000000000D+00
   350  3.4900000000000D+00  0.0000000000000D+00  0.0000000000000D+00
   351  3.5000000000000D+00  0.0000000000000D+00  0.0000000000000D+00
   352  3.5100000000000D+00  0.0000000000000D+00  0.0000000000000D+00
   353  3.5200000000000D+00  0.0000000000000D+00  0.0000000000000D+00
   354  3.5300000000000D+00  0.0000000000000D+00  0.0000000000000D+00
   355  3.5400000000000D+00  0.0000000000000D+00  0.0000000000000D+00
   356  3.5500000000000D+00  0.0000000000000D+00  0.0000000000000D+00
   357  3.5600000000000D+00  0.0000000000000D+00  0.0000000000000D+00
   358  3.5700000000000D+00  0.0000000000000D+00  0.0000000000000D+00
   359  3.5800000000000D+00  0.0000000000000D+00  0.0000000000000D+00
   360  3.5900000000000D+00  0.0000000000000D+00  0.0000000000000D+00
   361  3.6000000000000D+00  0.0000000000000D+00  0.0000000000000D+00
   362  3.6100000000000D+00  0.0000000000000D+00  0.0000000000000D+00
   363  3.6200000000000D+00  0.0000000000000D+00  0.0000000000000D+00
   364  3.6300000000000D+00  0.0000000000000D+00  0.0000000000000D+00
   365  3.6400000000000D+00  0.0000000000000D+00  0.0000000000000D+00
   366  3.6500000000000D+00  0.0000000000000D+00  0.0000000000000D+00
   367  3.6600000000000D+00  0.0000000000000D+00  0.0000000000000D+00
   368  3.6700000000000D+00  0.0000000000000D+00  0.0000000000000D+00
   369  3.6800000000000D+00  0.0000000000000D+00  0.0000000000000D+00
   370  3.6900000000000D+00  0.0000000000000D+00  0.0000000000000D+00
   371  3.7000000000000D+00  0.0000000000000D+00  0.0000000000000D+00
   372  3.7100000000000D+00  0.0000000000000D+00  0.0000000000000D+00
   373  3.7200000000000D+00  0.0000000000000D+00  0.0000000000000D+00
   374  3.7300000000000D+00  0.0000000000000D+00  0.0000000000000D+00
   375  3.7400000000000D+00  0.0000000000000D+00  0.0000000000000D+00
   376  3.7500000000000D+00  0.0000000000000D+00  0.0000000000000D+00
   377  3.7600000000000D+00  0.0000000000000D+00  0.0000000000000D+00
   378  3.7700000000000D+00  0.0000000000000D+00  0.0000000000000D+00
   379  3.7800000000000D+00  0.0000000000000D+00  0.0000000000000D+00
   380  3.7900000000000D+00  0.0000000000000D+00  0.0000000000000D+00
   381  3.8000000000000D+00  0.0000000000000D+00  0.0000000000000D+00
   382  3.8100000000000D+00  0.0000000000000D+00  0.0000000000000D+00
   383  3.8200000000000D+00  0.0000000000000D+00  0.0000000000000D+00
   384  3.8300000000000D+00  0.0000000000000D+00  0.0000000000000D+00
   385  3.8400000000000D+00  0.0000000000000D+00  0.0000000000000D+00
   386  3.8500000000000D+00  0.0000000000000D+00  0.0000000000000D+00
   387  3.8600000000000D+00  0.0000000000000D+00  0.0000000000000D+00
   388  3.8700000000000D+00  0.0000000000000D+00  0.0000000000000D+00
   389  3.8800000000000D+00  0.0000000000000D+00  0.0000000000000D+00
   390  3.8900000000000D+00  0.0000000000000D+00  0.0000000000000D+00
   391  3.9000000000000D+00  0.0000000000000D+00  0.0000000000000D+00
   392  3.9100000000000D+00  0.0000000000000D+00  0.0000000000000D+00
   393  3.9200000000000D+00  0.0000000000000D+00  0.0000000000000D+00
   394  3.9300000000000D+00  0.0000000000000D+00  0.0000000000000D+00
   395  3.9400000000000D+00  0.0000000000000D+00  0.0000000000000D+00
   396  3.9500000000000D+00  0.0000000000000D+00  0.0000000000000D+00
   397  3.9600000000000D+00  0.0000000000000D+00  0.0000000000000D+00
   398  3.9700000000000D+00  0.0000000000000D+00  0.0000000000000D+00
   399  3.9800000000000D+00  0.0000000000000D+00  0.0000000000000D+00
   400  3.9900000000000D+00  0.0000000000000D+00  0.0000000000000D+00
   401  4.0000000000000D+00  0.0000000000000D+00  0.0000000000000D+00
   402  4.0100000000000D+00  0.0000000000000D+00  0.0000000000000D+00
   403  4.0200000000000D+00  0.0000000000000D+00  0.0000000000000D+00
   404  4.0300000000000D+00  0.0000000000000D+00  0.0000000000000D+00
   405  4.0400000000000D+00  0.0000000000000D+00  0.0000000000000D+00
   406  4.0500000000000D+00  0.0000000000000D+00  0.0000000000000D+00
   407  4.0600000000000D+00  0.0000000000000D+00  0.0000000000000D+00
   408  4.0700000000000D+00  0.0000000000000D+00  0.0000000000000D+00
   409  4.0800000000000D+00  0.0000000000000D+00  0.0000000000000D+00
   410  4.0900000000000D+00  0.0000000000000D+00  0.0000000000000D+00
   411  4.1000000000000D+00  0.0000000000000D+00  0.0000000000000D+00
   412  4.1100000000000D+00  0.0000000000000D+00  0.0000000000000D+00
   413  4.1200000000000D+00  0.0000000000000D+00  0.0000000000000D+00
   414  4.1300000000000D+00  0.0000000000000D+00  0.0000000000000D+00
   415  4.1400000000000D+00  0.0000000000000D+00  0.0000000000000D+00
   416  4.1500000000000D+00  0.0000000000000D+00  0.0000000000000D+00
   417  4.1600000000000D+00  0.0000000000000D+00  0.0000000000000D+00
   418  4.1700000000000D+00  0.0000000000000D+00  0.0000000000000D+00
   419  4.1800000000000D+00  0.0000000000000D+00  0.0000000000000D+00
   420  4.1900000000000D+00  0.0000000000000D+00  0.0000000000000D+00
   421  4.2000000000000D+00  0.0000000000000D+00  0.0000000000000D+00
   422  4.2100000000000D+00  0.0000000000000D+00  0.0000000000000D+00