Te    ONCVPSP-3.3.0  r_core=   2.26547   1.91704   1.80604
     52.0000     16.0000      220408    zatom,zion,pspd
     8       2   2     4   600     0    pspcod,pspxc,lmax,lloc,mmax,r2well
  5.99000000  0.00000000  0.00000000    rchrg fchrg qchrg
     2     2     2     0     0    nproj
     1     1           extension_switch
   0                         6.3768052511435D+00  7.9989348725080D-01
     1  0.0000000000000D+00 -5.1966764225142D-12  2.7755811538022D-11
     2  1.0000000000000D-02  1.9634269469290D-02 -1.0004108170686D-02
     3  2.0000000000000D-02  3.9267598239685D-02 -1.9981502655107D-02
     4  3.0000000000000D-02  5.8899048839527D-02 -2.9905635106601D-02
     5  4.0000000000000D-02  7.8527690087952D-02 -3.9750286697929D-02
     6  5.0000000000000D-02  9.8152599832426D-02 -4.9489729988560D-02
     7  6.0000000000000D-02  1.1777286720052D-01 -5.9098887340697D-02
     8  7.0000000000000D-02  1.3738759421015D-01 -6.8553484766295D-02
     9  8.0000000000000D-02  1.5699589658769D-01 -7.7830200115099D-02
    10  9.0000000000000D-02  1.7659690364979D-01 -8.6906804548160D-02
    11  1.0000000000000D-01  1.9618975711252D-01 -9.5762296282256D-02
    12  1.1000000000000D-01  2.1577360870009D-01 -1.0437702563786D-01
    13  1.2000000000000D-01  2.3534761643555D-01 -1.1273281047656D-01
    14  1.3000000000000D-01  2.5491093950673D-01 -1.2081304117286D-01
    15  1.4000000000000D-01  2.7446273161282D-01 -1.2860277432972D-01
    16  1.5000000000000D-01  2.9400213270974D-01 -1.3608881451681D-01
    17  1.6000000000000D-01  3.1352825908660D-01 -1.4325978338468D-01
    18  1.7000000000000D-01  3.3304019171961D-01 -1.5010617558681D-01
    19  1.8000000000000D-01  3.5253696286555D-01 -1.5662040102386D-01
    20  1.9000000000000D-01  3.7201754087259D-01 -1.6279681301081D-01
    21  2.0000000000000D-01  3.9148081320238D-01 -1.6863172205626D-01
    22  2.1000000000000D-01  4.1092556767465D-01 -1.7412339503526D-01
    23  2.2000000000000D-01  4.3035047196213D-01 -1.7927203963023D-01
    24  2.3000000000000D-01  4.4975405138111D-01 -1.8407977400971D-01
    25  2.4000000000000D-01  4.6913466504051D-01 -1.8855058181112D-01
    26  2.5000000000000D-01  4.8849048042934D-01 -1.9269025258954D-01
    27  2.6000000000000D-01  5.0781944654003D-01 -1.9650630799172D-01
    28  2.7000000000000D-01  5.2711926564184D-01 -2.0000791400951D-01
    29  2.8000000000000D-01  5.4638736383559D-01 -2.0320577976217D-01
    30  2.9000000000000D-01  5.6562086053659D-01 -2.0611204334905D-01
    31  3.0000000000000D-01  5.8481653704902D-01 -2.0874014540524D-01
    32  3.1000000000000D-01  6.0397080440930D-01 -2.1110469107986D-01
    33  3.2000000000000D-01  6.2307967069049D-01 -2.1322130124107D-01
    34  3.3000000000000D-01  6.4213870797310D-01 -2.1510645379218D-01
    35  3.4000000000000D-01  6.6114301919966D-01 -2.1677731605884D-01
    36  3.5000000000000D-01  6.8008720514187D-01 -2.1825156927845D-01
    37  3.6000000000000D-01  6.9896533171905D-01 -2.1954722628827D-01
    38  3.7000000000000D-01  7.1777089791514D-01 -2.2068244356847D-01
    39  3.8000000000000D-01  7.3649680454919D-01 -2.2167532884962D-01
    40  3.9000000000000D-01  7.5513532415986D-01 -2.2254374554132D-01
    41  4.0000000000000D-01  7.7367807226904D-01 -2.2330511527777D-01
    42  4.1000000000000D-01  7.9211598029244D-01 -2.2397621990908D-01
    43  4.2000000000000D-01  8.1043927036622D-01 -2.2457300429176D-01
    44  4.3000000000000D-01  8.2863743235817D-01 -2.2511038124847D-01
    45  4.4000000000000D-01  8.4669920332984D-01 -2.2560204007647D-01
    46  4.5000000000000D-01  8.6461254971208D-01 -2.2606025998427D-01
    47  4.6000000000000D-01  8.8236465245041D-01 -2.2649572982848D-01
    48  4.7000000000000D-01  8.9994189536972D-01 -2.2691737550660D-01
    49  4.8000000000000D-01  9.1732985699789D-01 -2.2733219633650D-01
    50  4.9000000000000D-01  9.3451330607729D-01 -2.2774511172035D-01
    51  5.0000000000000D-01  9.5147620098015D-01 -2.2815881934890D-01
    52  5.1000000000000D-01  9.6820169322923D-01 -2.2857366615218D-01
    53  5.2000000000000D-01  9.8467213530919D-01 -2.2898753314449D-01
    54  5.3000000000000D-01  1.0008690929359D+00 -2.2939573524556D-01
    55  5.4000000000000D-01  1.0167733619322D+00 -2.2979093708596D-01
    56  5.5000000000000D-01  1.0323649898366D+00 -2.3016308572399D-01
    57  5.6000000000000D-01  1.0476233023504D+00 -2.3049936111266D-01
    58  5.7000000000000D-01  1.0625269347047D+00 -2.3078414506164D-01
    59  5.8000000000000D-01  1.0770538680029D+00 -2.3099900933697D-01
    60  5.9000000000000D-01  1.0911814705709D+00 -2.3112272343608D-01
    61  6.0000000000000D-01  1.1048865443163D+00 -2.3113128246305D-01
    62  6.1000000000000D-01  1.1181453760764D+00 -2.3099795541359D-01
    63  6.2000000000000D-01  1.1309337938988D+00 -2.3069335405865D-01
    64  6.3000000000000D-01  1.1432272281760D+00 -2.3018552249241D-01
    65  6.4000000000000D-01  1.1550007775230D+00 -2.2944004728425D-01
    66  6.5000000000000D-01  1.1662292792568D+00 -2.2842018804665D-01
    67  6.6000000000000D-01  1.1768873843096D+00 -2.2708702810120D-01
    68  6.7000000000000D-01  1.1869496363754D+00 -2.2539964479633D-01
    69  6.8000000000000D-01  1.1963905550619D+00 -2.2331529890009D-01
    70  6.9000000000000D-01  1.2051847227906D+00 -2.2078964236384D-01
    71  7.0000000000000D-01  1.2133068751594D+00 -2.1777694362619D-01
    72  7.1000000000000D-01  1.2207319944546D+00 -2.1423032950307D-01
    73  7.2000000000000D-01  1.2274354059749D+00 -2.1010204258930D-01
    74  7.3000000000000D-01  1.2333928767997D+00 -2.0534371298148D-01
    75  7.4000000000000D-01  1.2385807166168D+00 -1.9990664302087D-01
    76  7.5000000000000D-01  1.2429758801967D+00 -1.9374210364953D-01
    77  7.6000000000000D-01  1.2465560710823D+00 -1.8680164087476D-01
    78  7.7000000000000D-01  1.2492998460448D+00 -1.7903739074454D-01
    79  7.8000000000000D-01  1.2511867198369D+00 -1.7040240115347D-01
    80  7.9000000000000D-01  1.2521972697619D+00 -1.6085095872322D-01
    81  8.0000000000000D-01  1.2523132395646D+00 -1.5033891893516D-01
    82  8.1000000000000D-01  1.2515176421371D+00 -1.3882403763643D-01
    83  8.2000000000000D-01  1.2497948605297D+00 -1.2626630199412D-01
    84  8.3000000000000D-01  1.2471307467457D+00 -1.1262825893630D-01
    85  8.4000000000000D-01  1.2435127178029D+00 -9.7875339093805D-02
    86  8.5000000000000D-01  1.2389298485396D+00 -8.1976174243058D-02
    87  8.6000000000000D-01  1.2333729606488D+00 -6.4902906248004D-02
    88  8.7000000000000D-01  1.2268347074298D+00 -4.6631485509380D-02
    89  8.8000000000000D-01  1.2193096537551D+00 -2.7141956950895D-02
    90  8.9000000000000D-01  1.2107943507603D+00 -6.4187316058503D-03
    91  9.0000000000000D-01  1.2012874047839D+00  1.5549158086612D-02
    92  9.1000000000000D-01  1.1907895400953D+00  3.8767821108675D-02
    93  9.2000000000000D-01  1.1793036549746D+00  6.3238290578040D-02
    94  9.3000000000000D-01  1.1668348707285D+00  8.8956328031670D-02
    95  9.4000000000000D-01  1.1533905732516D+00  1.1591225086918D-01
    96  9.5000000000000D-01  1.1389804467731D+00  1.4409078444274D-01
    97  9.6000000000000D-01  1.1236164994575D+00  1.7347094016660D-01
    98  9.7000000000000D-01  1.1073130805618D+00  2.0402592089582D-01
    99  9.8000000000000D-01  1.0900868888878D+00  2.3572305468869D-01
   100  9.9000000000000D-01  1.0719569723048D+00  2.6852375793004D-01
   101  1.0000000000000D+00  1.0529447181565D+00  3.0238352863747D-01
   102  1.0100000000000D+00  1.0330738344097D+00  3.3725197061793D-01
   103  1.0200000000000D+00  1.0123703214424D+00  3.7307284897830D-01
   104  1.0300000000000D+00  9.9086243441326D-01  4.0978417732431D-01
   105  1.0400000000000D+00  9.6858063620232D-01  4.4731833680582D-01
   106  1.0500000000000D+00  9.4555754095329D-01  4.8560222699200D-01
   107  1.0600000000000D+00  9.2182784829915D-01  5.2455744838137D-01
   108  1.0700000000000D+00  8.9742826839781D-01  5.6410051616121D-01
   109  1.0800000000000D+00  8.7239743795098D-01  6.0414310465779D-01
   110  1.0900000000000D+00  8.4677582742825D-01  6.4459232172721D-01
   111  1.1000000000000D+00  8.2060563976228D-01  6.8535101216568D-01
   112  1.1100000000000D+00  7.9393070082737D-01  7.2631808903791D-01
   113  1.1200000000000D+00  7.6679634206112D-01  7.6738889163857D-01
   114  1.1300000000000D+00  7.3924927562959D-01  8.0845556864256D-01
   115  1.1400000000000D+00  7.1133746258112D-01  8.4940748482737D-01
   116  1.1500000000000D+00  6.8310997446863D-01  8.9013164961674D-01
   117  1.1600000000000D+00  6.5461684896803D-01  9.3051316550970D-01
   118  1.1700000000000D+00  6.2590894005052D-01  9.7043569434341D-01
   119  1.1800000000000D+00  5.9703776330099D-01  1.0097819392076D+00
   120  1.1900000000000D+00  5.6805533700540D-01  1.0484341397097D+00
   121  1.2000000000000D+00  5.3901401966316D-01  1.0862745781650D+00
   122  1.2100000000000D+00  5.0996634460299D-01  1.1231860942044D+00
   123  1.2200000000000D+00  4.8096485239698D-01  1.1590526052288D+00
   124  1.2300000000000D+00  4.5206192179832D-01  1.1937596300288D+00
   125  1.2400000000000D+00  4.2330959993541D-01  1.2271948128645D+00
   126  1.2500000000000D+00  3.9475943250566D-01  1.2592484452631D+00
   127  1.2600000000000D+00  3.6646229472656D-01  1.2898139827451D+00
   128  1.2700000000000D+00  3.3846822380032D-01  1.3187885537039D+00
   129  1.2800000000000D+00  3.1082625364888D-01  1.3460734576638D+00
   130  1.2900000000000D+00  2.8358425267834D-01  1.3715746501460D+00
   131  1.3000000000000D+00  2.5678876531238D-01  1.3952032114585D+00
   132  1.3100000000000D+00  2.3048485803394D-01  1.4168757967281D+00
   133  1.3200000000000D+00  2.0471597065961D-01  1.4365150645669D+00
   134  1.3300000000000D+00  1.7952377352846D-01  1.4540500819462D+00
   135  1.3400000000000D+00  1.5494803130423D-01  1.4694167027782D+00
   136  1.3500000000000D+00  1.3102647403249D-01  1.4825579179559D+00
   137  1.3600000000000D+00  1.0779467604699D-01  1.4934241747954D+00
   138  1.3700000000000D+00  8.5285943364238D-02  1.5019736636415D+00
   139  1.3800000000000D+00  6.3531210057277D-02  1.5081725700158D+00
   140  1.3900000000000D+00  4.2558944140181D-02  1.5119952905132D+00
   141  1.4000000000000D+00  2.2395063455327D-02  1.5134246108241D+00
   142  1.4100000000000D+00  3.0628619012422D-03  1.5124518448853D+00
   143  1.4200000000000D+00 -1.5417053522291D-02  1.5090769335993D+00
   144  1.4300000000000D+00 -3.3026814622844D-02  1.5033085025706D+00
   145  1.4400000000000D+00 -4.9751332582612D-02  1.4951638780337D+00
   146  1.4500000000000D+00 -6.5578326914995D-02  1.4846690602619D+00
   147  1.4600000000000D+00 -8.0498342796271D-02  1.4718586547585D+00
   148  1.4700000000000D+00 -9.4504756471717D-02  1.4567757603954D+00
   149  1.4800000000000D+00 -1.0759376889425D-01  1.4394718154882D+00
   150  1.4900000000000D+00 -1.1976438746490D-01  1.4200064016459D+00
   151  1.5000000000000D+00 -1.3101839600257D-01  1.3984470062640D+00
   152  1.5100000000000D+00 -1.4136031311750D-01  1.3748687446940D+00
   153  1.5200000000000D+00 -1.5079733902759D-01  1.3493540426183D+00
   154  1.5300000000000D+00 -1.5933929130225D-01  1.3219922808578D+00
   155  1.5400000000000D+00 -1.6699852952090D-01  1.2928794029494D+00
   156  1.5500000000000D+00 -1.7378986952454D-01  1.2621174884516D+00
   157  1.5600000000000D+00 -1.7973048736768D-01  1.2298142927784D+00
   158  1.5700000000000D+00 -1.8483981365622D-01  1.1960827565350D+00
   159  1.5800000000000D+00 -1.8913941860528D-01  1.1610404860061D+00
   160  1.5900000000000D+00 -1.9265288845776D-01  1.1248092075972D+00
   161  1.6000000000000D+00 -1.9540569381347D-01  1.0875141986583D+00
   162  1.6100000000000D+00 -1.9742505047405D-01  1.0492836973692D+00
   163  1.6200000000000D+00 -1.9873977352513D-01  1.0102482946935D+00
   164  1.6300000000000D+00 -1.9938012525136D-01  9.7054031107150D-01
   165  1.6400000000000D+00 -1.9937765771903D-01  9.3029316118580D-01
   166  1.6500000000000D+00 -1.9876505064539D-01  8.8964070959754D-01
   167  1.6600000000000D+00 -1.9757594543801D-01  8.4871662064401D-01
   168  1.6700000000000D+00 -1.9584477608025D-01  8.0765370565319D-01
   169  1.6800000000000D+00 -1.9360659773075D-01  7.6658327066384D-01
   170  1.6900000000000D+00 -1.9089691379861D-01  7.2563446807046D-01
   171  1.7000000000000D+00 -1.8775150228884D-01  6.8493365495159D-01
   172  1.7100000000000D+00 -1.8420624228403D-01  6.4460376192312D-01
   173  1.7200000000000D+00 -1.8029694123835D-01  6.0476367467901D-01
   174  1.7300000000000D+00 -1.7605916405656D-01  5.6552763246686D-01
   175  1.7400000000000D+00 -1.7152806449071D-01  5.2700464499286D-01
   176  1.7500000000000D+00 -1.6673821922764D-01  4.8929792811242D-01
   177  1.7600000000000D+00 -1.6172346940545D-01  4.5250438565430D-01
   178  1.7700000000000D+00 -1.5651675485619D-01  4.1671404782845D-01
   179  1.7800000000000D+00 -1.5114998403762D-01  3.8200971383077D-01
   180  1.7900000000000D+00 -1.4565387847277D-01  3.4846645533314D-01
   181  1.8000000000000D+00 -1.4005778289665D-01  3.1615088691604D-01
   182  1.8100000000000D+00 -1.3438959366167D-01  2.8512114972564D-01
   183  1.8200000000000D+00 -1.2867576591691D-01  2.5542739462669D-01
   184  1.8300000000000D+00 -1.2294130904878D-01  2.2711210898827D-01
   185  1.8400000000000D+00 -1.1720983663766D-01  2.0021063895886D-01
   186  1.8500000000000D+00 -1.1150362969647D-01  1.7475180158431D-01
   187  1.8600000000000D+00 -1.0584354663623D-01  1.5075751866436D-01
   188  1.8700000000000D+00 -1.0024897360801D-01  1.2824264061228D-01
   189  1.8800000000000D+00 -9.4737833598011D-02  1.0721518298833D-01
   190  1.8900000000000D+00 -8.9326563450545D-02  8.7676318463078D-02
   191  1.9000000000000D+00 -8.4030112736251D-02  6.9620497513673D-02
   192  1.9100000000000D+00 -7.8861948002797D-02  5.3035588720165D-02
   193  1.9200000000000D+00 -7.3834064568303D-02  3.7903051549703D-02
   194  1.9300000000000D+00 -6.8957006077644D-02  2.4198143727815D-02
   195  1.9400000000000D+00 -6.4239891105048D-02  1.1890159343068D-02
   196  1.9500000000000D+00 -5.9690447296833D-02  9.4269969069502D-04
   197  1.9600000000000D+00 -5.5315051532515D-02 -8.6860301043834D-03
   198  1.9700000000000D+00 -5.1118777234645D-02 -1.7042893890357D-02
   199  1.9800000000000D+00 -4.7105447035910D-02 -2.4179474828596D-02
   200  1.9900000000000D+00 -4.3277691413336D-02 -3.0151700815183D-02
   201  2.0000000000000D+00 -3.9637012363785D-02 -3.5019449253899D-02
   202  2.0100000000000D+00 -3.6183851595197D-02 -3.8846133708362D-02
   203  2.0200000000000D+00 -3.2917663232490D-02 -4.1698272697243D-02
   204  2.0300000000000D+00 -2.9836989757614D-02 -4.3645046364027D-02
   205  2.0400000000000D+00 -2.6939541451457D-02 -4.4757840220732D-02
   206  2.0500000000000D+00 -2.4222278178063D-02 -4.5109781090886D-02
   207  2.0600000000000D+00 -2.1681493231705D-02 -4.4775266803532D-02
   208  2.0700000000000D+00 -1.9312898661488D-02 -4.3829492407293D-02
   209  2.0800000000000D+00 -1.7111711422591D-02 -4.2347975793356D-02
   210  2.0900000000000D+00 -1.5072739754832D-02 -4.0406085863811D-02
   211  2.1000000000000D+00 -1.3190469399013D-02 -3.8078574762688D-02
   212  2.1100000000000D+00 -1.1459148806409D-02 -3.5439118352093D-02
   213  2.1200000000000D+00 -9.8728728785213D-03 -3.2559867044447D-02
   214  2.1300000000000D+00 -8.4256650542629D-03 -2.9511007753728D-02
   215  2.1400000000000D+00 -7.1115562605933D-03 -2.6360344098432D-02
   216  2.1500000000000D+00 -5.9246614630603D-03 -2.3172891208531D-02
   217  2.1600000000000D+00 -4.8592522956360D-03 -2.0010492364641D-02
   218  2.1700000000000D+00 -3.9098254368610D-03 -1.6931458993921D-02
   219  2.1800000000000D+00 -3.0711674912129D-03 -1.3990230409002D-02
   220  2.1900000000000D+00 -2.3385671247237D-03 -1.1238874809685D-02
   221  2.2000000000000D+00 -1.7074488446543D-03 -8.7218505152221D-03
   222  2.2100000000000D+00 -1.1733231200298D-03 -6.4745930373872D-03
   223  2.2200000000000D+00 -7.3244868516808D-04 -4.5194199611118D-03
   224  2.2300000000000D+00 -3.8312518111432D-04 -2.9228052358026D-03
   225  2.2400000000000D+00 -1.2345894274163D-04 -1.7380025227086D-03
   226  2.2500000000000D+00  5.0611335392504D-05 -9.8645243193598D-04
   227  2.2600000000000D+00  1.3765014438552D-04 -5.4615783918227D-04
   228  2.2700000000000D+00  1.4064778741801D-04 -2.8595075764263D-04
   229  2.2800000000000D+00  8.4211351650080D-05 -1.1571998599846D-04
   230  2.2900000000000D+00  1.5509118903128D-05 -1.6795146713990D-05
   231  2.3000000000000D+00 -1.8013859866302D-05  1.7286202068175D-05
   232  2.3100000000000D+00 -1.7263324769865D-05  1.4363602968803D-05
   233  2.3200000000000D+00 -3.1274785747500D-07  2.3265047329605D-07
   234  2.3300000000000D+00  4.2301035283651D-06 -5.0536216225138D-06
   235  2.3400000000000D+00  3.2845538367685D-06 -3.7513483441333D-06
   236  2.3500000000000D+00 -1.1078040899712D-07  2.8997305397956D-07
   237  2.3600000000000D+00 -4.2383026496142D-07  1.1093961234881D-06
   238  2.3700000000000D+00 -2.5838930494224D-07  6.7634644562207D-07
   239  2.3800000000000D+00  0.0000000000000D+00  0.0000000000000D+00
   240  2.3900000000000D+00  0.0000000000000D+00  0.0000000000000D+00
   241  2.4000000000000D+00  0.0000000000000D+00  0.0000000000000D+00
   242  2.4100000000000D+00  0.0000000000000D+00  0.0000000000000D+00
   243  2.4200000000000D+00  0.0000000000000D+00  0.0000000000000D+00
   244  2.4300000000000D+00  0.0000000000000D+00  0.0000000000000D+00
   245  2.4400000000000D+00  0.0000000000000D+00  0.0000000000000D+00
   246  2.4500000000000D+00  0.0000000000000D+00  0.0000000000000D+00
   247  2.4600000000000D+00  0.0000000000000D+00  0.0000000000000D+00
   248  2.4700000000000D+00  0.0000000000000D+00  0.0000000000000D+00
   249  2.4800000000000D+00  0.0000000000000D+00  0.0000000000000D+00
   250  2.4900000000000D+00  0.0000000000000D+00  0.0000000000000D+00
   251  2.5000000000000D+00  0.0000000000000D+00  0.0000000000000D+00
   252  2.5100000000000D+00  0.0000000000000D+00  0.0000000000000D+00
   253  2.5200000000000D+00  0.0000000000000D+00  0.0000000000000D+00
   254  2.5300000000000D+00  0.0000000000000D+00  0.0000000000000D+00
   255  2.5400000000000D+00  0.0000000000000D+00  0.0000000000000D+00
   256  2.5500000000000D+00  0.0000000000000D+00  0.0000000000000D+00
   257  2.5600000000000D+00  0.0000000000000D+00  0.0000000000000D+00
   258  2.5700000000000D+00  0.0000000000000D+00  0.0000000000000D+00
   259  2.5800000000000D+00  0.0000000000000D+00  0.0000000000000D+00
   260  2.5900000000000D+00  0.0000000000000D+00  0.0000000000000D+00
   261  2.6000000000000D+00  0.0000000000000D+00  0.0000000000000D+00
   262  2.6100000000000D+00  0.0000000000000D+00  0.0000000000000D+00
   263  2.6200000000000D+00  0.0000000000000D+00  0.0000000000000D+00
   264  2.6300000000000D+00  0.0000000000000D+00  0.0000000000000D+00
   265  2.6400000000000D+00  0.0000000000000D+00  0.0000000000000D+00
   266  2.6500000000000D+00  0.0000000000000D+00  0.0000000000000D+00
   267  2.6600000000000D+00  0.0000000000000D+00  0.0000000000000D+00
   268  2.6700000000000D+00  0.0000000000000D+00  0.0000000000000D+00
   269  2.6800000000000D+00  0.0000000000000D+00  0.0000000000000D+00
   270  2.6900000000000D+00  0.0000000000000D+00  0.0000000000000D+00
   271  2.7000000000000D+00  0.0000000000000D+00  0.0000000000000D+00
   272  2.7100000000000D+00  0.0000000000000D+00  0.0000000000000D+00
   273  2.7200000000000D+00  0.0000000000000D+00  0.0000000000000D+00
   274  2.7300000000000D+00  0.0000000000000D+00  0.0000000000000D+00
   275  2.7400000000000D+00  0.0000000000000D+00  0.0000000000000D+00
   276  2.7500000000000D+00  0.0000000000000D+00  0.0000000000000D+00
   277  2.7600000000000D+00  0.0000000000000D+00  0.0000000000000D+00
   278  2.7700000000000D+00  0.0000000000000D+00  0.0000000000000D+00
   279  2.7800000000000D+00  0.0000000000000D+00  0.0000000000000D+00
   280  2.7900000000000D+00  0.0000000000000D+00  0.0000000000000D+00
   281  2.8000000000000D+00  0.0000000000000D+00  0.0000000000000D+00
   282  2.8100000000000D+00  0.0000000000000D+00  0.0000000000000D+00
   283  2.8200000000000D+00  0.0000000000000D+00  0.0000000000000D+00
   284  2.8300000000000D+00  0.0000000000000D+00  0.0000000000000D+00
   285  2.8400000000000D+00  0.0000000000000D+00  0.0000000000000D+00
   286  2.8500000000000D+00  0.0000000000000D+00  0.0000000000000D+00
   287  2.8600000000000D+00  0.0000000000000D+00  0.0000000000000D+00
   288  2.8700000000000D+00  0.0000000000000D+00  0.0000000000000D+00
   289  2.8800000000000D+00  0.0000000000000D+00  0.0000000000000D+00
   290  2.8900000000000D+00  0.0000000000000D+00  0.0000000000000D+00
   291  2.9000000000000D+00  0.0000000000000D+00  0.0000000000000D+00
   292  2.9100000000000D+00  0.0000000000000D+00  0.0000000000000D+00
   293  2.9200000000000D+00  0.0000000000000D+00  0.0000000000000D+00
   294  2.9300000000000D+00  0.0000000000000D+00  0.0000000000000D+00
   295  2.9400000000000D+00  0.0000000000000D+00  0.0000000000000D+00
   296  2.9500000000000D+00  0.0000000000000D+00  0.0000000000000D+00
   297  2.9600000000000D+00  0.0000000000000D+00  0.0000000000000D+00
   298  2.9700000000000D+00  0.0000000000000D+00  0.0000000000000D+00
   299  2.9800000000000D+00  0.0000000000000D+00  0.0000000000000D+00
   300  2.9900000000000D+00  0.0000000000000D+00  0.0000000000000D+00
   301  3.0000000000000D+00  0.0000000000000D+00  0.0000000000000D+00
   302  3.0100000000000D+00  0.0000000000000D+00  0.0000000000000D+00
   303  3.0200000000000D+00  0.0000000000000D+00  0.0000000000000D+00
   304  3.0300000000000D+00  0.0000000000000D+00  0.0000000000000D+00
   305  3.0400000000000D+00  0.0000000000000D+00  0.0000000000000D+00
   306  3.0500000000000D+00  0.0000000000000D+00  0.0000000000000D+00
   307  3.0600000000000D+00  0.0000000000000D+00  0.0000000000000D+00
   308  3.0700000000000D+00  0.0000000000000D+00  0.0000000000000D+00
   309  3.0800000000000D+00  0.0000000000000D+00  0.0000000000000D+00
   310  3.0900000000000D+00  0.0000000000000D+00  0.0000000000000D+00
   311  3.1000000000000D+00  0.0000000000000D+00  0.0000000000000D+00
   312  3.1100000000000D+00  0.0000000000000D+00  0.0000000000000D+00
   313  3.1200000000000D+00  0.0000000000000D+00  0.0000000000000D+00
   314  3.1300000000000D+00  0.0000000000000D+00  0.0000000000000D+00
   315  3.1400000000000D+00  0.0000000000000D+00  0.0000000000000D+00
   316  3.1500000000000D+00  0.0000000000000D+00  0.0000000000000D+00
   317  3.1600000000000D+00  0.0000000000000D+00  0.0000000000000D+00
   318  3.1700000000000D+00  0.0000000000000D+00  0.0000000000000D+00
   319  3.1800000000000D+00  0.0000000000000D+00  0.0000000000000D+00
   320  3.1900000000000D+00  0.0000000000000D+00  0.0000000000000D+00
   321  3.2000000000000D+00  0.0000000000000D+00  0.0000000000000D+00
   322  3.2100000000000D+00  0.0000000000000D+00  0.0000000000000D+00
   323  3.2200000000000D+00  0.0000000000000D+00  0.0000000000000D+00
   324  3.2300000000000D+00  0.0000000000000D+00  0.0000000000000D+00
   325  3.2400000000000D+00  0.0000000000000D+00  0.0000000000000D+00
   326  3.2500000000000D+00  0.0000000000000D+00  0.0000000000000D+00
   327  3.2600000000000D+00  0.0000000000000D+00  0.0000000000000D+00
   328  3.2700000000000D+00  0.0000000000000D+00  0.0000000000000D+00
   329  3.2800000000000D+00  0.0000000000000D+00  0.0000000000000D+00
   330  3.2900000000000D+00  0.0000000000000D+00  0.0000000000000D+00
   331  3.3000000000000D+00  0.0000000000000D+00  0.0000000000000D+00
   332  3.3100000000000D+00  0.0000000000000D+00  0.0000000000000D+00
   333  3.3200000000000D+00  0.0000000000000D+00  0.0000000000000D+00
   334  3.3300000000000D+00  0.0000000000000D+00  0.0000000000000D+00
   335  3.3400000000000D+00  0.0000000000000D+00  0.0000000000000D+00
   336  3.3500000000000D+00  0.0000000000000D+00  0.0000000000000D+00
   337  3.3600000000000D+00  0.0000000000000D+00  0.0000000000000D+00
   338  3.3700000000000D+00  0.0000000000000D+00  0.0000000000000D+00
   339  3.3800000000000D+00  0.0000000000000D+00  0.0000000000000D+00
   340  3.3900000000000D+00  0.0000000000000D+00  0.0000000000000D+00
   341  3.4000000000000D+00  0.0000000000000D+00  0.0000000000000D+00
   342  3.4100000000000D+00  0.0000000000000D+00  0.0000000000000D+00
   343  3.4200000000000D+00  0.0000000000000D+00  0.0000000000000D+00
   344  3.4300000000000D+00  0.0000000000000D+00  0.0000000000000D+00
   345  3.4400000000000D+00  0.0000000000000D+00  0.0000000000000D+00
   346  3.4500000000000D+00  0.0000000000000D+00  0.0000000000000D+00
   347  3.4600000000000D+00  0.0000000000000D+00  0.0000000000000D+00
   348  3.4700000000000D+00  0.0000000000000D+00  0.0000000000000D+00
   349  3.4800000000000D+00  0.0000000000000D+00  0.0000000000000D+00
   350  3.4900000000000D+00  0.0000000000000D+00  0.0000000000000D+00
   351  3.5000000000000D+00  0.0000000000000D+00  0.0000000000000D+00
   352  3.5100000000000D+00  0.0000000000000D+00  0.0000000000000D+00
   353  3.5200000000000D+00  0.0000000000000D+00  0.0000000000000D+00
   354  3.5300000000000D+00  0.0000000000000D+00  0.0000000000000D+00
   355  3.5400000000000D+00  0.0000000000000D+00  0.0000000000000D+00
   356  3.5500000000000D+00  0.0000000000000D+00  0.0000000000000D+00
   357  3.5600000000000D+00  0.0000000000000D+00  0.0000000000000D+00
   358  3.5700000000000D+00  0.0000000000000D+00  0.0000000000000D+00
   359  3.5800000000000D+00  0.0000000000000D+00  0.0000000000000D+00
   360  3.5900000000000D+00  0.0000000000000D+00  0.0000000000000D+00
   361  3.6000000000000D+00  0.0000000000000D+00  0.0000000000000D+00
   362  3.6100000000000D+00  0.0000000000000D+00  0.0000000000000D+00
   363  3.6200000000000D+00  0.0000000000000D+00  0.0000000000000D+00
   364  3.6300000000000D+00  0.0000000000000D+00  0.0000000000000D+00
   365  3.6400000000000D+00  0.0000000000000D+00  0.0000000000000D+00
   366  3.6500000000000D+00  0.0000000000000D+00  0.0000000000000D+00
   367  3.6600000000000D+00  0.0000000000000D+00  0.0000000000000D+00
   368  3.6700000000000D+00  0.0000000000000D+00  0.0000000000000D+00
   369  3.6800000000000D+00  0.0000000000000D+00  0.0000000000000D+00
   370  3.6900000000000D+00  0.0000000000000D+00  0.0000000000000D+00
   371  3.7000000000000D+00  0.0000000000000D+00  0.0000000000000D+00
   372  3.7100000000000D+00  0.0000000000000D+00  0.0000000000000D+00
   373  3.7200000000000D+00  0.0000000000000D+00  0.0000000000000D+00
   374  3.7300000000000D+00  0.0000000000000D+00  0.0000000000000D+00
   375  3.7400000000000D+00  0.0000000000000D+00  0.0000000000000D+00
   376  3.7500000000000D+00  0.0000000000000D+00  0.0000000000000D+00
   377  3.7600000000000D+00  0.0000000000000D+00  0.0000000000000D+00
   378  3.7700000000000D+00  0.0000000000000D+00  0.0000000000000D+00
   379  3.7800000000000D+00  0.0000000000000D+00  0.0000000000000D+00
   380  3.7900000000000D+00  0.0000000000000D+00  0.0000000000000D+00
   381  3.8000000000000D+00  0.0000000000000D+00  0.0000000000000D+00
   382  3.8100000000000D+00  0.0000000000000D+00  0.0000000000000D+00
   383  3.8200000000000D+00  0.0000000000000D+00  0.0000000000000D+00
   384  3.8300000000000D+00  0.0000000000000D+00  0.0000000000000D+00
   385  3.8400000000000D+00  0.0000000000000D+00  0.0000000000000D+00
   386  3.8500000000000D+00  0.0000000000000D+00  0.0000000000000D+00
   387  3.8600000000000D+00  0.0000000000000D+00  0.0000000000000D+00
   388  3.8700000000000D+00  0.0000000000000D+00  0.0000000000000D+00
   389  3.8800000000000D+00  0.0000000000000D+00  0.0000000000000D+00
   390  3.8900000000000D+00  0.0000000000000D+00  0.0000000000000D+00
   391  3.9000000000000D+00  0.0000000000000D+00  0.0000000000000D+00
   392  3.9100000000000D+00  0.0000000000000D+00  0.0000000000000D+00
   393  3.9200000000000D+00  0.0000000000000D+00  0.0000000000000D+00
   394  3.9300000000000D+00  0.0000000000000D+00  0.0000000000000D+00
   395  3.9400000000000D+00  0.0000000000000D+00  0.0000000000000D+00
   396  3.9500000000000D+00  0.0000000000000D+00  0.0000000000000D+00
   397  3.9600000000000D+00  0.0000000000000D+00  0.0000000000000D+00
   398  3.9700000000000D+00  0.0000000000000D+00  0.0000000000000D+00
   399  3.9800000000000D+00  0.0000000000000D+00  0.0000000000000D+00
   400  3.9900000000000D+00  0.0000000000000D+00  0.0000000000000D+00
   401  4.0000000000000D+00  0.0000000000000D+00  0.0000000000000D+00
   402  4.0100000000000D+00  0.0000000000000D+00  0.0000000000000D+00
   403  4.0200000000000D+00  0.0000000000000D+00  0.0000000000000D+00
   404  4.0300000000000D+00  0.0000000000000D+00  0.0000000000000D+00
   405  4.0400000000000D+00  0.0000000000000D+00  0.0000000000000D+00
   406  4.0500000000000D+00  0.0000000000000D+00  0.0000000000000D+00
   407  4.0600000000000D+00  0.0000000000000D+00  0.0000000000000D+00
   408  4.0700000000000D+00  0.0000000000000D+00  0.0000000000000D+00
   409  4.0800000000000D+00  0.0000000000000D+00  0.0000000000000D+00
   410  4.0900000000000D+00  0.0000000000000D+00  0.0000000000000D+00
   411  4.1000000000000D+00  0.0000000000000D+00  0.0000000000000D+00
   412  4.1100000000000D+00  0.0000000000000D+00  0.0000000000000D+00
   413  4.1200000000000D+00  0.0000000000000D+00  0.0000000000000D+00
   414  4.1300000000000D+00  0.0000000000000D+00  0.0000000000000D+00
   415  4.1400000000000D+00  0.0000000000000D+00  0.0000000000000D+00
   416  4.1500000000000D+00  0.0000000000000D+00  0.0000000000000D+00
   417  4.1600000000000D+00  0.0000000000000D+00  0.0000000000000D+00
   418  4.1700000000000D+00  0.0000000000000D+00  0.0000000000000D+00
   419  4.1800000000000D+00  0.0000000000000D+00  0.0000000000000D+00
   420  4.1900000000000D+00  0.0000000000000D+00  0.0000000000000D+00
   421  4.2000000000000D+00  0.0000000000000D+00  0.0000000000000D+00
   422  4.2100000000000D+00  0.0000000000000D+00  0.0000000000000D+00