Te    ONCVPSP-3.3.0  r_core=   1.30874   1.30874   1.51015
     52.0000     24.0000      220408    zatom,zion,pspd
     8       2   2     4   600     0    pspcod,pspxc,lmax,lloc,mmax,r2well
  5.99000000  0.00000000  0.00000000    rchrg fchrg qchrg
     2     2     2     0     0    nproj
     1     1           extension_switch
   0                         9.0693336993141D+00 -3.7286636591016D-01
     1  0.0000000000000D+00 -5.8656868251461D-10 -1.0642922876336D-08
     2  1.0000000000000D-02  9.2598987370530D-02  6.5457706131499D-02
     3  2.0000000000000D-02  1.8491069030330D-01  1.3025439147627D-01
     4  3.0000000000000D-02  2.7664914055700D-01  1.9373834746201D-01
     5  4.0000000000000D-02  3.6753099143602D-01  2.5527633322271D-01
     6  5.0000000000000D-02  4.5727680159850D-01  3.1426242042703D-01
     7  6.0000000000000D-02  5.4561228693284D-01  3.7012637901753D-01
     8  7.0000000000000D-02  6.3226953056116D-01  4.2234146358520D-01
     9  8.0000000000000D-02  7.1698814161514D-01  4.7043147074704D-01
    10  9.0000000000000D-02  7.9951635414327D-01  5.1397695084143D-01
    11  1.0000000000000D-01  8.7961205833853D-01  5.5262047228001D-01
    12  1.1000000000000D-01  9.5704375720557D-01  5.8607085372890D-01
    13  1.2000000000000D-01  1.0315914428023D+00  6.1410629763925D-01
    14  1.3000000000000D-01  1.1030473872744D+00  6.3657637818265D-01
    15  1.4000000000000D-01  1.1712168450331D+00  6.5340285702313D-01
    16  1.5000000000000D-01  1.2359186635905D+00  6.6457932121284D-01
    17  1.6000000000000D-01  1.2969858017375D+00  6.7016965846044D-01
    18  1.7000000000000D-01  1.3542657549138D+00  6.7030540571566D-01
    19  1.8000000000000D-01  1.4076208887519D+00  6.6518202706781D-01
    20  1.9000000000000D-01  1.4569286828602D+00  6.5505419601089D-01
    21  2.0000000000000D-01  1.5020818879304D+00  6.4023017483632D-01
    22  2.1000000000000D-01  1.5429886001863D+00  6.2106539995558D-01
    23  2.2000000000000D-01  1.5795722580247D+00  5.9795539603457D-01
    24  2.3000000000000D-01  1.6117715664227D+00  5.7132815367840D-01
    25  2.4000000000000D-01  1.6395403552805D+00  5.4163611481844D-01
    26  2.5000000000000D-01  1.6628473783352D+00  5.0934791674279D-01
    27  2.6000000000000D-01  1.6816760596006D+00  4.7494004974303D-01
    28  2.7000000000000D-01  1.6960241944711D+00  4.3888858453987D-01
    29  2.8000000000000D-01  1.7059036126596D+00  4.0166112396290D-01
    30  2.9000000000000D-01  1.7113398100269D+00  3.6370912881258D-01
    31  3.0000000000000D-01  1.7123715561135D+00  3.2546076049298D-01
    32  3.1000000000000D-01  1.7090504837964D+00  2.8731437299324D-01
    33  3.2000000000000D-01  1.7014406669877D+00  2.4963277427822D-01
    34  3.3000000000000D-01  1.6896181916708D+00  2.1273836234324D-01
    35  3.4000000000000D-01  1.6736707248521D+00  1.7690922434867D-01
    36  3.5000000000000D-01  1.6536970852045D+00  1.4237626867420D-01
    37  3.6000000000000D-01  1.6298068183147D+00  1.0932143975066D-01
    38  3.7000000000000D-01  1.6021197785345D+00  7.7877044499093D-02
    39  3.8000000000000D-01  1.5707657185022D+00  4.8126197507967D-02
    40  3.9000000000000D-01  1.5358838864554D+00  2.0104370113628D-02
    41  4.0000000000000D-01  1.4976226305365D+00 -6.1979932845223D-03
    42  4.1000000000000D-01  1.4561390084008D+00 -3.0831849635957D-02
    43  4.2000000000000D-01  1.4115983996089D+00 -5.3885000689981D-02
    44  4.3000000000000D-01  1.3641741175326D+00 -7.5476702820655D-02
    45  4.4000000000000D-01  1.3140470168441D+00 -9.5751557885608D-02
    46  4.5000000000000D-01  1.2614050921132D+00 -1.1487281506728D-01
    47  4.6000000000000D-01  1.2064430626172D+00 -1.3301522658908D-01
    48  4.7000000000000D-01  1.1493619381863D+00 -1.5035761053152D-01
    49  4.8000000000000D-01  1.0903685607739D+00 -1.6707528147085D-01
    50  4.9000000000000D-01  1.0296751164621D+00 -1.8333251415175D-01
    51  5.0000000000000D-01  9.6749861279320D-01 -1.9927520676512D-01
    52  5.1000000000000D-01  9.0406031665497D-01 -2.1502390857029D-01
    53  5.2000000000000D-01  8.3958514844622D-01 -2.3066737156599D-01
    54  5.3000000000000D-01  7.7430102889294D-01 -2.4625677772758D-01
    55  5.4000000000000D-01  7.0843817567505D-01 -2.6180078212152D-01
    56  5.5000000000000D-01  6.4222834794306D-01 -2.7726149809764D-01
    57  5.6000000000000D-01  5.7590403783694D-01 -2.9255153403970D-01
    58  5.7000000000000D-01  5.0969760925138D-01 -3.0753217204022D-01
    59  5.8000000000000D-01  4.4384038530146D-01 -3.2201275769438D-01
    60  5.9000000000000D-01  3.7856168720610D-01 -3.3575134739028D-01
    61  6.0000000000000D-01  3.1408782860554D-01 -3.4845663531039D-01
    62  6.1000000000000D-01  2.5064107063067D-01 -3.5979115740259D-01
    63  6.2000000000000D-01  1.8843854432699D-01 -3.6937574420198D-01
    64  6.3000000000000D-01  1.2769114827706D-01 -3.7679516900842D-01
    65  6.4000000000000D-01  6.8602430427791D-02 -3.8160491326331D-01
    66  6.5000000000000D-01  1.1367464204528D-02 -3.8333894707311D-01
    67  6.6000000000000D-01 -4.3828270061359D-02 -3.8151840059505D-01
    68  6.7000000000000D-01 -9.6809986561936D-02 -3.7566098163777D-01
    69  6.8000000000000D-01 -1.4741466582960D-01 -3.6529097667094D-01
    70  6.9000000000000D-01 -1.9549208402142D-01 -3.4994965712294D-01
    71  7.0000000000000D-01 -2.4090578649746D-01 -3.2920590047901D-01
    72  7.1000000000000D-01 -2.8353399247852D-01 -3.0266682663393D-01
    73  7.2000000000000D-01 -3.2327041775101D-01 -2.6998824443941D-01
    74  7.3000000000000D-01 -3.6002500279351D-01 -2.3088470157774D-01
    75  7.4000000000000D-01 -3.9372453433607D-01 -1.8513893287231D-01
    76  7.5000000000000D-01 -4.2431314922275D-01 -1.3261050795244D-01
    77  7.6000000000000D-01 -4.5175271052470D-01 -7.3243488769824D-02
    78  7.7000000000000D-01 -4.7602304713935D-01 -7.0729207888892D-03
    79  7.8000000000000D-01 -4.9712204958425D-01  6.5770001567525D-02
    80  7.9000000000000D-01 -5.1506561634444D-01  1.4505423456384D-01
    81  8.0000000000000D-01 -5.2988744693089D-01  2.3044676621946D-01
    82  8.1000000000000D-01 -5.4163867973107D-01  3.2151216951540D-01
    83  8.2000000000000D-01 -5.5038737475172D-01  4.1771389066512D-01
    84  8.3000000000000D-01 -5.5621784343796D-01  5.1841730586910D-01
    85  8.4000000000000D-01 -5.5922982986896D-01  6.2289454925458D-01
    86  8.5000000000000D-01 -5.5953754974378D-01  7.3033108330327D-01
    87  8.6000000000000D-01 -5.5726859564733D-01  8.3983395154336D-01
    88  8.7000000000000D-01 -5.5256271909026D-01  9.5044162219132D-01
    89  8.8000000000000D-01 -5.4557050171248D-01  1.0611353013367D+00
    90  8.9000000000000D-01 -5.3645192979568D-01  1.1708515657273D+00
    91  9.0000000000000D-01 -5.2537488781209D-01  1.2784961387635D+00
    92  9.1000000000000D-01 -5.1251358811564D-01  1.3829586094614D+00
    93  9.2000000000000D-01 -4.9804695503139D-01  1.4831278733532D+00
    94  9.3000000000000D-01 -4.8215698249444D-01  1.5779080569885D+00
    95  9.4000000000000D-01 -4.6502708501224D-01  1.6662346742365D+00
    96  9.5000000000000D-01 -4.4684046205784D-01  1.7470907532689D+00
    97  9.6000000000000D-01 -4.2777849603575D-01  1.8195226681604D+00
    98  9.7000000000000D-01 -4.0801920369388D-01  1.8826554085748D+00
    99  9.8000000000000D-01 -3.8773576025702D-01  1.9357070254296D+00
   100  9.9000000000000D-01 -3.6709511471551D-01  1.9780019987600D+00
   101  1.0000000000000D+00 -3.4625671348910D-01  2.0089832877260D+00
   102  1.0100000000000D+00 -3.2537134825024D-01  2.0282228401766D+00
   103  1.0200000000000D+00 -3.0458014197639D-01  2.0354303609300D+00
   104  1.0300000000000D+00 -2.8401368535658D-01  2.0304601633695D+00
   105  1.0400000000000D+00 -2.6379133348733D-01  2.0133159583320D+00
   106  1.0500000000000D+00 -2.4402067049980D-01  1.9841534655588D+00
   107  1.0600000000000D+00 -2.2479714732185D-01  1.9432807667058D+00
   108  1.0700000000000D+00 -2.0620389508021D-01  1.8911563567606D+00
   109  1.0800000000000D+00 -1.8831171414233D-01  1.8283848862258D+00
   110  1.0900000000000D+00 -1.7117923601776D-01  1.7557106261549D+00
   111  1.1000000000000D+00 -1.5485325284104D-01  1.6740087241319D+00
   112  1.1100000000000D+00 -1.3936920655526D-01  1.5842743570099D+00
   113  1.1200000000000D+00 -1.2475182732367D-01  1.4876099241349D+00
   114  1.1300000000000D+00 -1.1101590853263D-01  1.3852104566166D+00
   115  1.1400000000000D+00 -9.8167203542006D-02  1.2783474508792D+00
   116  1.1500000000000D+00 -8.6203427644377D-02  1.1683513598950D+00
   117  1.1600000000000D+00 -7.5115346653514D-02  1.0565930061366D+00
   118  1.1700000000000D+00 -6.4887932500089D-02  9.4446419613232D-01
   119  1.1800000000000D+00 -5.5501565138288D-02  8.3335783290351D-01
   120  1.1900000000000D+00 -4.6933259201976D-02  7.2464783590987D-01
   121  1.2000000000000D+00 -3.9157893460162D-02  6.1966918461825D-01
   122  1.2100000000000D+00 -3.2149421380684D-02  5.1969839855345D-01
   123  1.2200000000000D+00 -2.5882040938547D-02  4.2593476960170D-01
   124  1.2300000000000D+00 -2.0331302762861D-02  3.3948264907173D-01
   125  1.2400000000000D+00 -1.5475136960707D-02  2.6133507388842D-01
   126  1.2500000000000D+00 -1.1294779625778D-02  1.9235900673277D-01
   127  1.2600000000000D+00 -7.7755819245831D-03  1.3328243757931D-01
   128  1.2700000000000D+00 -4.9093667666568D-03  8.4713132330345D-02
   129  1.2800000000000D+00 -2.6829493982422D-03  4.6911743980289D-02
   130  1.2900000000000D+00 -1.1060833689815D-03  2.0293153423890D-02
   131  1.3000000000000D+00 -2.2474014290245D-04  5.7590572070479D-03
   132  1.3100000000000D+00  7.3362824420445D-05  5.6441118694778D-04
   133  1.3200000000000D+00  4.0646278542496D-05 -1.6214735047540D-04
   134  1.3300000000000D+00 -1.8263877283893D-05  1.0489734349374D-04
   135  1.3400000000000D+00 -1.0709460789305D-06  7.0948158253541D-06
   136  1.3500000000000D+00  3.4359980357917D-06 -1.5713744850263D-05
   137  1.3600000000000D+00 -1.2009713626785D-07 -1.7590266112941D-06
   138  1.3700000000000D+00 -8.1041073237888D-08 -1.1869842101426D-06
   139  1.3800000000000D+00  0.0000000000000D+00  0.0000000000000D+00
   140  1.3900000000000D+00  0.0000000000000D+00  0.0000000000000D+00
   141  1.4000000000000D+00  0.0000000000000D+00  0.0000000000000D+00
   142  1.4100000000000D+00  0.0000000000000D+00  0.0000000000000D+00
   143  1.4200000000000D+00  0.0000000000000D+00  0.0000000000000D+00
   144  1.4300000000000D+00  0.0000000000000D+00  0.0000000000000D+00
   145  1.4400000000000D+00  0.0000000000000D+00  0.0000000000000D+00
   146  1.4500000000000D+00  0.0000000000000D+00  0.0000000000000D+00
   147  1.4600000000000D+00  0.0000000000000D+00  0.0000000000000D+00
   148  1.4700000000000D+00  0.0000000000000D+00  0.0000000000000D+00
   149  1.4800000000000D+00  0.0000000000000D+00  0.0000000000000D+00
   150  1.4900000000000D+00  0.0000000000000D+00  0.0000000000000D+00
   151  1.5000000000000D+00  0.0000000000000D+00  0.0000000000000D+00
   152  1.5100000000000D+00  0.0000000000000D+00  0.0000000000000D+00
   153  1.5200000000000D+00  0.0000000000000D+00  0.0000000000000D+00
   154  1.5300000000000D+00  0.0000000000000D+00  0.0000000000000D+00
   155  1.5400000000000D+00  0.0000000000000D+00  0.0000000000000D+00
   156  1.5500000000000D+00  0.0000000000000D+00  0.0000000000000D+00
   157  1.5600000000000D+00  0.0000000000000D+00  0.0000000000000D+00
   158  1.5700000000000D+00  0.0000000000000D+00  0.0000000000000D+00
   159  1.5800000000000D+00  0.0000000000000D+00  0.0000000000000D+00
   160  1.5900000000000D+00  0.0000000000000D+00  0.0000000000000D+00
   161  1.6000000000000D+00  0.0000000000000D+00  0.0000000000000D+00
   162  1.6100000000000D+00  0.0000000000000D+00  0.0000000000000D+00
   163  1.6200000000000D+00  0.0000000000000D+00  0.0000000000000D+00
   164  1.6300000000000D+00  0.0000000000000D+00  0.0000000000000D+00
   165  1.6400000000000D+00  0.0000000000000D+00  0.0000000000000D+00
   166  1.6500000000000D+00  0.0000000000000D+00  0.0000000000000D+00
   167  1.6600000000000D+00  0.0000000000000D+00  0.0000000000000D+00
   168  1.6700000000000D+00  0.0000000000000D+00  0.0000000000000D+00
   169  1.6800000000000D+00  0.0000000000000D+00  0.0000000000000D+00
   170  1.6900000000000D+00  0.0000000000000D+00  0.0000000000000D+00
   171  1.7000000000000D+00  0.0000000000000D+00  0.0000000000000D+00
   172  1.7100000000000D+00  0.0000000000000D+00  0.0000000000000D+00
   173  1.7200000000000D+00  0.0000000000000D+00  0.0000000000000D+00
   174  1.7300000000000D+00  0.0000000000000D+00  0.0000000000000D+00
   175  1.7400000000000D+00  0.0000000000000D+00  0.0000000000000D+00
   176  1.7500000000000D+00  0.0000000000000D+00  0.0000000000000D+00
   177  1.7600000000000D+00  0.0000000000000D+00  0.0000000000000D+00
   178  1.7700000000000D+00  0.0000000000000D+00  0.0000000000000D+00
   179  1.7800000000000D+00  0.0000000000000D+00  0.0000000000000D+00
   180  1.7900000000000D+00  0.0000000000000D+00  0.0000000000000D+00
   181  1.8000000000000D+00  0.0000000000000D+00  0.0000000000000D+00
   182  1.8100000000000D+00  0.0000000000000D+00  0.0000000000000D+00
   183  1.8200000000000D+00  0.0000000000000D+00  0.0000000000000D+00
   184  1.8300000000000D+00  0.0000000000000D+00  0.0000000000000D+00
   185  1.8400000000000D+00  0.0000000000000D+00  0.0000000000000D+00
   186  1.8500000000000D+00  0.0000000000000D+00  0.0000000000000D+00
   187  1.8600000000000D+00  0.0000000000000D+00  0.0000000000000D+00
   188  1.8700000000000D+00  0.0000000000000D+00  0.0000000000000D+00
   189  1.8800000000000D+00  0.0000000000000D+00  0.0000000000000D+00
   190  1.8900000000000D+00  0.0000000000000D+00  0.0000000000000D+00
   191  1.9000000000000D+00  0.0000000000000D+00  0.0000000000000D+00
   192  1.9100000000000D+00  0.0000000000000D+00  0.0000000000000D+00
   193  1.9200000000000D+00  0.0000000000000D+00  0.0000000000000D+00
   194  1.9300000000000D+00  0.0000000000000D+00  0.0000000000000D+00
   195  1.9400000000000D+00  0.0000000000000D+00  0.0000000000000D+00
   196  1.9500000000000D+00  0.0000000000000D+00  0.0000000000000D+00
   197  1.9600000000000D+00  0.0000000000000D+00  0.0000000000000D+00
   198  1.9700000000000D+00  0.0000000000000D+00  0.0000000000000D+00
   199  1.9800000000000D+00  0.0000000000000D+00  0.0000000000000D+00
   200  1.9900000000000D+00  0.0000000000000D+00  0.0000000000000D+00
   201  2.0000000000000D+00  0.0000000000000D+00  0.0000000000000D+00
   202  2.0100000000000D+00  0.0000000000000D+00  0.0000000000000D+00
   203  2.0200000000000D+00  0.0000000000000D+00  0.0000000000000D+00
   204  2.0300000000000D+00  0.0000000000000D+00  0.0000000000000D+00
   205  2.0400000000000D+00  0.0000000000000D+00  0.0000000000000D+00
   206  2.0500000000000D+00  0.0000000000000D+00  0.0000000000000D+00
   207  2.0600000000000D+00  0.0000000000000D+00  0.0000000000000D+00
   208  2.0700000000000D+00  0.0000000000000D+00  0.0000000000000D+00
   209  2.0800000000000D+00  0.0000000000000D+00  0.0000000000000D+00
   210  2.0900000000000D+00  0.0000000000000D+00  0.0000000000000D+00
   211  2.1000000000000D+00  0.0000000000000D+00  0.0000000000000D+00
   212  2.1100000000000D+00  0.0000000000000D+00  0.0000000000000D+00
   213  2.1200000000000D+00  0.0000000000000D+00  0.0000000000000D+00
   214  2.1300000000000D+00  0.0000000000000D+00  0.0000000000000D+00
   215  2.1400000000000D+00  0.0000000000000D+00  0.0000000000000D+00
   216  2.1500000000000D+00  0.0000000000000D+00  0.0000000000000D+00
   217  2.1600000000000D+00  0.0000000000000D+00  0.0000000000000D+00
   218  2.1700000000000D+00  0.0000000000000D+00  0.0000000000000D+00
   219  2.1800000000000D+00  0.0000000000000D+00  0.0000000000000D+00
   220  2.1900000000000D+00  0.0000000000000D+00  0.0000000000000D+00
   221  2.2000000000000D+00  0.0000000000000D+00  0.0000000000000D+00
   222  2.2100000000000D+00  0.0000000000000D+00  0.0000000000000D+00
   223  2.2200000000000D+00  0.0000000000000D+00  0.0000000000000D+00
   224  2.2300000000000D+00  0.0000000000000D+00  0.0000000000000D+00
   225  2.2400000000000D+00  0.0000000000000D+00  0.0000000000000D+00
   226  2.2500000000000D+00  0.0000000000000D+00  0.0000000000000D+00
   227  2.2600000000000D+00  0.0000000000000D+00  0.0000000000000D+00
   228  2.2700000000000D+00  0.0000000000000D+00  0.0000000000000D+00
   229  2.2800000000000D+00  0.0000000000000D+00  0.0000000000000D+00
   230  2.2900000000000D+00  0.0000000000000D+00  0.0000000000000D+00
   231  2.3000000000000D+00  0.0000000000000D+00  0.0000000000000D+00
   232  2.3100000000000D+00  0.0000000000000D+00  0.0000000000000D+00
   233  2.3200000000000D+00  0.0000000000000D+00  0.0000000000000D+00
   234  2.3300000000000D+00  0.0000000000000D+00  0.0000000000000D+00
   235  2.3400000000000D+00  0.0000000000000D+00  0.0000000000000D+00
   236  2.3500000000000D+00  0.0000000000000D+00  0.0000000000000D+00
   237  2.3600000000000D+00  0.0000000000000D+00  0.0000000000000D+00
   238  2.3700000000000D+00  0.0000000000000D+00  0.0000000000000D+00
   239  2.3800000000000D+00  0.0000000000000D+00  0.0000000000000D+00
   240  2.3900000000000D+00  0.0000000000000D+00  0.0000000000000D+00
   241  2.4000000000000D+00  0.0000000000000D+00  0.0000000000000D+00
   242  2.4100000000000D+00  0.0000000000000D+00  0.0000000000000D+00
   243  2.4200000000000D+00  0.0000000000000D+00  0.0000000000000D+00
   244  2.4300000000000D+00  0.0000000000000D+00  0.0000000000000D+00
   245  2.4400000000000D+00  0.0000000000000D+00  0.0000000000000D+00
   246  2.4500000000000D+00  0.0000000000000D+00  0.0000000000000D+00
   247  2.4600000000000D+00  0.0000000000000D+00  0.0000000000000D+00
   248  2.4700000000000D+00  0.0000000000000D+00  0.0000000000000D+00
   249  2.4800000000000D+00  0.0000000000000D+00  0.0000000000000D+00
   250  2.4900000000000D+00  0.0000000000000D+00  0.0000000000000D+00
   251  2.5000000000000D+00  0.0000000000000D+00  0.0000000000000D+00
   252  2.5100000000000D+00  0.0000000000000D+00  0.0000000000000D+00
   253  2.5200000000000D+00  0.0000000000000D+00  0.0000000000000D+00
   254  2.5300000000000D+00  0.0000000000000D+00  0.0000000000000D+00
   255  2.5400000000000D+00  0.0000000000000D+00  0.0000000000000D+00
   256  2.5500000000000D+00  0.0000000000000D+00  0.0000000000000D+00
   257  2.5600000000000D+00  0.0000000000000D+00  0.0000000000000D+00
   258  2.5700000000000D+00  0.0000000000000D+00  0.0000000000000D+00
   259  2.5800000000000D+00  0.0000000000000D+00  0.0000000000000D+00
   260  2.5900000000000D+00  0.0000000000000D+00  0.0000000000000D+00
   261  2.6000000000000D+00  0.0000000000000D+00  0.0000000000000D+00
   262  2.6100000000000D+00  0.0000000000000D+00  0.0000000000000D+00
   263  2.6200000000000D+00  0.0000000000000D+00  0.0000000000000D+00
   264  2.6300000000000D+00  0.0000000000000D+00  0.0000000000000D+00
   265  2.6400000000000D+00  0.0000000000000D+00  0.0000000000000D+00
   266  2.6500000000000D+00  0.0000000000000D+00  0.0000000000000D+00
   267  2.6600000000000D+00  0.0000000000000D+00  0.0000000000000D+00
   268  2.6700000000000D+00  0.0000000000000D+00  0.0000000000000D+00
   269  2.6800000000000D+00  0.0000000000000D+00  0.0000000000000D+00
   270  2.6900000000000D+00  0.0000000000000D+00  0.0000000000000D+00
   271  2.7000000000000D+00  0.0000000000000D+00  0.0000000000000D+00
   272  2.7100000000000D+00  0.0000000000000D+00  0.0000000000000D+00
   273  2.7200000000000D+00  0.0000000000000D+00  0.0000000000000D+00
   274  2.7300000000000D+00  0.0000000000000D+00  0.0000000000000D+00
   275  2.7400000000000D+00  0.0000000000000D+00  0.0000000000000D+00
   276  2.7500000000000D+00  0.0000000000000D+00  0.0000000000000D+00
   277  2.7600000000000D+00  0.0000000000000D+00  0.0000000000000D+00
   278  2.7700000000000D+00  0.0000000000000D+00  0.0000000000000D+00
   279  2.7800000000000D+00  0.0000000000000D+00  0.0000000000000D+00
   280  2.7900000000000D+00  0.0000000000000D+00  0.0000000000000D+00
   281  2.8000000000000D+00  0.0000000000000D+00  0.0000000000000D+00
   282  2.8100000000000D+00  0.0000000000000D+00  0.0000000000000D+00
   283  2.8200000000000D+00  0.0000000000000D+00  0.0000000000000D+00
   284  2.8300000000000D+00  0.0000000000000D+00  0.0000000000000D+00
   285  2.8400000000000D+00  0.0000000000000D+00  0.0000000000000D+00
   286  2.8500000000000D+00  0.0000000000000D+00  0.0000000000000D+00
   287  2.8600000000000D+00  0.0000000000000D+00  0.0000000000000D+00
   288  2.8700000000000D+00  0.0000000000000D+00  0.0000000000000D+00
   289  2.8800000000000D+00  0.0000000000000D+00  0.0000000000000D+00
   290  2.8900000000000D+00  0.0000000000000D+00  0.0000000000000D+00
   291  2.9000000000000D+00  0.0000000000000D+00  0.0000000000000D+00
   292  2.9100000000000D+00  0.0000000000000D+00  0.0000000000000D+00
   293  2.9200000000000D+00  0.0000000000000D+00  0.0000000000000D+00
   294  2.9300000000000D+00  0.0000000000000D+00  0.0000000000000D+00
   295  2.9400000000000D+00  0.0000000000000D+00  0.0000000000000D+00
   296  2.9500000000000D+00  0.0000000000000D+00  0.0000000000000D+00
   297  2.9600000000000D+00  0.0000000000000D+00  0.0000000000000D+00
   298  2.9700000000000D+00  0.0000000000000D+00  0.0000000000000D+00
   299  2.9800000000000D+00  0.0000000000000D+00  0.0000000000000D+00
   300  2.9900000000000D+00  0.0000000000000D+00  0.0000000000000D+00
   301  3.0000000000000D+00  0.0000000000000D+00  0.0000000000000D+00
   302  3.0100000000000D+00  0.0000000000000D+00  0.0000000000000D+00
   303  3.0200000000000D+00  0.0000000000000D+00  0.0000000000000D+00
   304  3.0300000000000D+00  0.0000000000000D+00  0.0000000000000D+00
   305  3.0400000000000D+00  0.0000000000000D+00  0.0000000000000D+00
   306  3.0500000000000D+00  0.0000000000000D+00  0.0000000000000D+00
   307  3.0600000000000D+00  0.0000000000000D+00  0.0000000000000D+00
   308  3.0700000000000D+00  0.0000000000000D+00  0.0000000000000D+00
   309  3.0800000000000D+00  0.0000000000000D+00  0.0000000000000D+00
   310  3.0900000000000D+00  0.0000000000000D+00  0.0000000000000D+00
   311  3.1000000000000D+00  0.0000000000000D+00  0.0000000000000D+00
   312  3.1100000000000D+00  0.0000000000000D+00  0.0000000000000D+00
   313  3.1200000000000D+00  0.0000000000000D+00  0.0000000000000D+00
   314  3.1300000000000D+00  0.0000000000000D+00  0.0000000000000D+00
   315  3.1400000000000D+00  0.0000000000000D+00  0.0000000000000D+00
   316  3.1500000000000D+00  0.0000000000000D+00  0.0000000000000D+00
   317  3.1600000000000D+00  0.0000000000000D+00  0.0000000000000D+00
   318  3.1700000000000D+00  0.0000000000000D+00  0.0000000000000D+00
   319  3.1800000000000D+00  0.0000000000000D+00  0.0000000000000D+00
   320  3.1900000000000D+00  0.0000000000000D+00  0.0000000000000D+00
   321  3.2000000000000D+00  0.0000000000000D+00  0.0000000000000D+00
   322  3.2100000000000D+00  0.0000000000000D+00  0.0000000000000D+00
   323  3.2200000000000D+00  0.0000000000000D+00  0.0000000000000D+00
   324  3.2300000000000D+00  0.0000000000000D+00  0.0000000000000D+00
   325  3.2400000000000D+00  0.0000000000000D+00  0.0000000000000D+00
   326  3.2500000000000D+00  0.0000000000000D+00  0.0000000000000D+00
   327  3.2600000000000D+00  0.0000000000000D+00  0.0000000000000D+00
   328  3.2700000000000D+00  0.0000000000000D+00  0.0000000000000D+00
   329  3.2800000000000D+00  0.0000000000000D+00  0.0000000000000D+00
   330  3.2900000000000D+00  0.0000000000000D+00  0.0000000000000D+00
   331  3.3000000000000D+00  0.0000000000000D+00  0.0000000000000D+00
   332  3.3100000000000D+00  0.0000000000000D+00  0.0000000000000D+00
   333  3.3200000000000D+00  0.0000000000000D+00  0.0000000000000D+00
   334  3.3300000000000D+00  0.0000000000000D+00  0.0000000000000D+00
   335  3.3400000000000D+00  0.0000000000000D+00  0.0000000000000D+00
   336  3.3500000000000D+00  0.0000000000000D+00  0.0000000000000D+00
   337  3.3600000000000D+00  0.0000000000000D+00  0.0000000000000D+00
   338  3.3700000000000D+00  0.0000000000000D+00  0.0000000000000D+00
   339  3.3800000000000D+00  0.0000000000000D+00  0.0000000000000D+00
   340  3.3900000000000D+00  0.0000000000000D+00  0.0000000000000D+00
   341  3.4000000000000D+00  0.0000000000000D+00  0.0000000000000D+00
   342  3.4100000000000D+00  0.0000000000000D+00  0.0000000000000D+00
   343  3.4200000000000D+00  0.0000000000000D+00  0.0000000000000D+00
   344  3.4300000000000D+00  0.0000000000000D+00  0.0000000000000D+00
   345  3.4400000000000D+00  0.0000000000000D+00  0.0000000000000D+00
   346  3.4500000000000D+00  0.0000000000000D+00  0.0000000000000D+00
   347  3.4600000000000D+00  0.0000000000000D+00  0.0000000000000D+00
   348  3.4700000000000D+00  0.0000000000000D+00  0.0000000000000D+00
   349  3.4800000000000D+00  0.0000000000000D+00  0.0000000000000D+00
   350  3.4900000000000D+00  0.0000000000000D+00  0.0000000000000D+00
   351  3.5000000000000D+00  0.0000000000000D+00  0.0000000000000D+00
   352  3.5100000000000D+00  0.0000000000000D+00  0.0000000000000D+00
   353  3.5200000000000D+00  0.0000000000000D+00  0.0000000000000D+00
   354  3.5300000000000D+00  0.0000000000000D+00  0.0000000000000D+00
   355  3.5400000000000D+00  0.0000000000000D+00  0.0000000000000D+00
   356  3.5500000000000D+00  0.0000000000000D+00  0.0000000000000D+00
   357  3.5600000000000D+00  0.0000000000000D+00  0.0000000000000D+00
   358  3.5700000000000D+00  0.0000000000000D+00  0.0000000000000D+00
   359  3.5800000000000D+00  0.0000000000000D+00  0.0000000000000D+00
   360  3.5900000000000D+00  0.0000000000000D+00  0.0000000000000D+00
   361  3.6000000000000D+00  0.0000000000000D+00  0.0000000000000D+00
   362  3.6100000000000D+00  0.0000000000000D+00  0.0000000000000D+00
   363  3.6200000000000D+00  0.0000000000000D+00  0.0000000000000D+00
   364  3.6300000000000D+00  0.0000000000000D+00  0.0000000000000D+00
   365  3.6400000000000D+00  0.0000000000000D+00  0.0000000000000D+00
   366  3.6500000000000D+00  0.0000000000000D+00  0.0000000000000D+00
   367  3.6600000000000D+00  0.0000000000000D+00  0.0000000000000D+00
   368  3.6700000000000D+00  0.0000000000000D+00  0.0000000000000D+00
   369  3.6800000000000D+00  0.0000000000000D+00  0.0000000000000D+00
   370  3.6900000000000D+00  0.0000000000000D+00  0.0000000000000D+00
   371  3.7000000000000D+00  0.0000000000000D+00  0.0000000000000D+00
   372  3.7100000000000D+00  0.0000000000000D+00  0.0000000000000D+00
   373  3.7200000000000D+00  0.0000000000000D+00  0.0000000000000D+00
   374  3.7300000000000D+00  0.0000000000000D+00  0.0000000000000D+00
   375  3.7400000000000D+00  0.0000000000000D+00  0.0000000000000D+00
   376  3.7500000000000D+00  0.0000000000000D+00  0.0000000000000D+00
   377  3.7600000000000D+00  0.0000000000000D+00  0.0000000000000D+00
   378  3.7700000000000D+00  0.0000000000000D+00  0.0000000000000D+00
   379  3.7800000000000D+00  0.0000000000000D+00  0.0000000000000D+00
   380  3.7900000000000D+00  0.0000000000000D+00  0.0000000000000D+00
   381  3.8000000000000D+00  0.0000000000000D+00  0.0000000000000D+00
   382  3.8100000000000D+00  0.0000000000000D+00  0.0000000000000D+00
   383  3.8200000000000D+00  0.0000000000000D+00  0.0000000000000D+00
   384  3.8300000000000D+00  0.0000000000000D+00  0.0000000000000D+00
   385  3.8400000000000D+00  0.0000000000000D+00  0.0000000000000D+00
   386  3.8500000000000D+00  0.0000000000000D+00  0.0000000000000D+00
   387  3.8600000000000D+00  0.0000000000000D+00  0.0000000000000D+00
   388  3.8700000000000D+00  0.0000000000000D+00  0.0000000000000D+00
   389  3.8800000000000D+00  0.0000000000000D+00  0.0000000000000D+00
   390  3.8900000000000D+00  0.0000000000000D+00  0.0000000000000D+00
   391  3.9000000000000D+00  0.0000000000000D+00  0.0000000000000D+00
   392  3.9100000000000D+00  0.0000000000000D+00  0.0000000000000D+00
   393  3.9200000000000D+00  0.0000000000000D+00  0.0000000000000D+00
   394  3.9300000000000D+00  0.0000000000000D+00  0.0000000000000D+00
   395  3.9400000000000D+00  0.0000000000000D+00  0.0000000000000D+00
   396  3.9500000000000D+00  0.0000000000000D+00  0.0000000000000D+00
   397  3.9600000000000D+00  0.0000000000000D+00  0.0000000000000D+00
   398  3.9700000000000D+00  0.0000000000000D+00  0.0000000000000D+00
   399  3.9800000000000D+00  0.0000000000000D+00  0.0000000000000D+00
   400  3.9900000000000D+00  0.0000000000000D+00  0.0000000000000D+00
   401  4.0000000000000D+00  0.0000000000000D+00  0.0000000000000D+00
   402  4.0100000000000D+00  0.0000000000000D+00  0.0000000000000D+00
   403  4.0200000000000D+00  0.0000000000000D+00  0.0000000000000D+00
   404  4.0300000000000D+00  0.0000000000000D+00  0.0000000000000D+00
   405  4.0400000000000D+00  0.0000000000000D+00  0.0000000000000D+00
   406  4.0500000000000D+00  0.0000000000000D+00  0.0000000000000D+00
   407  4.0600000000000D+00  0.0000000000000D+00  0.0000000000000D+00
   408  4.0700000000000D+00  0.0000000000000D+00  0.0000000000000D+00
   409  4.0800000000000D+00  0.0000000000000D+00  0.0000000000000D+00
   410  4.0900000000000D+00  0.0000000000000D+00  0.0000000000000D+00
   411  4.1000000000000D+00  0.0000000000000D+00  0.0000000000000D+00
   412  4.1100000000000D+00  0.0000000000000D+00  0.0000000000000D+00
   413  4.1200000000000D+00  0.0000000000000D+00  0.0000000000000D+00
   414  4.1300000000000D+00  0.0000000000000D+00  0.0000000000000D+00
   415  4.1400000000000D+00  0.0000000000000D+00  0.0000000000000D+00
   416  4.1500000000000D+00  0.0000000000000D+00  0.0000000000000D+00
   417  4.1600000000000D+00  0.0000000000000D+00  0.0000000000000D+00
   418  4.1700000000000D+00  0.0000000000000D+00  0.0000000000000D+00
   419  4.1800000000000D+00  0.0000000000000D+00  0.0000000000000D+00
   420  4.1900000000000D+00  0.0000000000000D+00  0.0000000000000D+00
   421  4.2000000000000D+00  0.0000000000000D+00  0.0000000000000D+00
   422  4.2100000000000D+00  0.0000000000000D+00  0.0000000000000D+00