Te    ONCVPSP-3.3.0  r_core=   2.40470   2.21206   2.61411
     52.0000      6.0000      220408    zatom,zion,pspd
     8       2   2     4   600     0    pspcod,pspxc,lmax,lloc,mmax,r2well
  5.99000000  0.00000000  0.00000000    rchrg fchrg qchrg
     2     2     2     0     0    nproj
     1     1           extension_switch
   0                         4.5358864572550D+00  4.2853587685412D-01
     1  0.0000000000000D+00 -1.0076800505132D-11  4.3924225368031D-11
     2  1.0000000000000D-02  2.4575300345475D-02 -1.1574434052227D-02
     3  2.0000000000000D-02  4.9129289975857D-02 -2.3085182338728D-02
     4  3.0000000000000D-02  7.3640741365049D-02 -3.4468931381644D-02
     5  4.0000000000000D-02  9.8088592892438D-02 -4.5663110178855D-02
     6  5.0000000000000D-02  1.2245203061691D-01 -5.6606256202968D-02
     7  6.0000000000000D-02  1.4671056864351D-01 -6.7238375144728D-02
     8  7.0000000000000D-02  1.7084412762552D-01 -7.7501292367273D-02
     9  8.0000000000000D-02  1.9483311095468D-01 -8.7338994081592D-02
    10  9.0000000000000D-02  2.1865847820495D-01 -9.6697956308010D-02
    11  1.0000000000000D-01  2.4230181540991D-01 -1.0552745975329D-01
    12  1.1000000000000D-01  2.6574540177115D-01 -1.1377988880770D-01
    13  1.2000000000000D-01  2.8897227241422D-01 -1.2141101295066D-01
    14  1.3000000000000D-01  3.1196627683030D-01 -1.2838024894723D-01
    15  1.4000000000000D-01  3.3471213266513D-01 -1.3465090231954D-01
    16  1.5000000000000D-01  3.5719547454183D-01 -1.4019038668813D-01
    17  1.6000000000000D-01  3.7940289763170D-01 -1.4497041969556D-01
    18  1.7000000000000D-01  4.0132199571537D-01 -1.4896719435022D-01
    19  1.8000000000000D-01  4.2294139350683D-01 -1.5216152475920D-01
    20  1.9000000000000D-01  4.4425077304458D-01 -1.5453896535646D-01
    21  2.0000000000000D-01  4.6524089398620D-01 -1.5608990287466D-01
    22  2.1000000000000D-01  4.8590360767661D-01 -1.5680962045537D-01
    23  2.2000000000000D-01  5.0623186489436D-01 -1.5669833344243D-01
    24  2.3000000000000D-01  5.2621971721533D-01 -1.5576119655619D-01
    25  2.4000000000000D-01  5.4586231196859D-01 -1.5400828230097D-01
    26  2.5000000000000D-01  5.6515588079499D-01 -1.5145453061418D-01
    27  2.6000000000000D-01  5.8409772185443D-01 -1.4811966992228D-01
    28  2.7000000000000D-01  6.0268617576386D-01 -1.4402810992435D-01
    29  2.8000000000000D-01  6.2092059538305D-01 -1.3920880657951D-01
    30  2.9000000000000D-01  6.3880130960014D-01 -1.3369509992677D-01
    31  3.0000000000000D-01  6.5632958130319D-01 -1.2752452551651D-01
    32  3.1000000000000D-01  6.7350755975738D-01 -1.2073860037898D-01
    33  3.2000000000000D-01  6.9033822763955D-01 -1.1338258459759D-01
    34  3.3000000000000D-01  7.0682534301335D-01 -1.0550521969183D-01
    35  3.4000000000000D-01  7.2297337655754D-01 -9.7158445145901D-02
    36  3.5000000000000D-01  7.3878744438869D-01 -8.8397094544218D-02
    37  3.6000000000000D-01  7.5427323684574D-01 -7.9278572892005D-02
    38  3.7000000000000D-01  7.6943694362889D-01 -6.9862516809700D-02
    39  3.8000000000000D-01  7.8428517570784D-01 -6.0210439390659D-02
    40  3.9000000000000D-01  7.9882488443529D-01 -5.0385361604407D-02
    41  4.0000000000000D-01  8.1306327832005D-01 -4.0451432210667D-02
    42  4.1000000000000D-01  8.2700773793017D-01 -3.0473538221992D-02
    43  4.2000000000000D-01  8.4066572941038D-01 -2.0516908015922D-02
    44  4.3000000000000D-01  8.5404471710936D-01 -1.0646709249130D-02
    45  4.4000000000000D-01  8.6715207582100D-01 -9.2764376685708D-04
    46  4.5000000000000D-01  8.7999500315002D-01  8.5764582693955D-03
    47  4.6000000000000D-01  8.9258043251547D-01  1.7803042795242D-02
    48  4.7000000000000D-01  9.0491494730651D-01  2.6691232550798D-02
    49  4.8000000000000D-01  9.1700469670279D-01  3.5182221840373D-02
    50  4.9000000000000D-01  9.2885531366684D-01  4.3219663120402D-02
    51  5.0000000000000D-01  9.4047183560851D-01  5.0750043220276D-02
    52  5.1000000000000D-01  9.5185862821120D-01  5.7723047041730D-02
    53  5.2000000000000D-01  9.6301931289675D-01  6.4091906634504D-02
    54  5.3000000000000D-01  9.7395669839042D-01  6.9813733610034D-02
    55  5.4000000000000D-01  9.8467271682915D-01  7.4849832928888D-02
    56  5.5000000000000D-01  9.9516836483591D-01  7.9165996183979D-02
    57  5.6000000000000D-01  1.0054436499601D+00  8.2732772596613D-02
    58  5.7000000000000D-01  1.0154975428581D+00  8.5525716048537D-02
    59  5.8000000000000D-01  1.0253279355622D+00  8.7525606588224D-02
    60  5.9000000000000D-01  1.0349316061540D+00  8.8718644973604D-02
    61  6.0000000000000D-01  1.0443041901307D+00  8.9096618945820D-02
    62  6.1000000000000D-01  1.0534401587158D+00  8.8657040068777D-02
    63  6.2000000000000D-01  1.0623328043333D+00  8.7403250115903D-02
    64  6.3000000000000D-01  1.0709742334290D+00  8.5344496139603D-02
    65  6.4000000000000D-01  1.0793553667812D+00  8.2495973516626D-02
    66  6.5000000000000D-01  1.0874659474107D+00  7.8878836427268D-02
    67  6.6000000000000D-01  1.0952945561536D+00  7.4520175393700D-02
    68  6.7000000000000D-01  1.1028286349273D+00  6.9452961672251D-02
    69  6.8000000000000D-01  1.1100545176732D+00  6.3715958469137D-02
    70  6.9000000000000D-01  1.1169574689244D+00  5.7353599122136D-02
    71  7.0000000000000D-01  1.1235217299002D+00  5.0415832565767D-02
    72  7.1000000000000D-01  1.1297305719950D+00  4.2957936572003D-02
    73  7.2000000000000D-01  1.1355663574807D+00  3.5040299431450D-02
    74  7.3000000000000D-01  1.1410106072103D+00  2.6728170910781D-02
    75  7.4000000000000D-01  1.1460440750644D+00  1.8091383489697D-02
    76  7.5000000000000D-01  1.1506468288480D+00  9.2040450445976D-03
    77  7.6000000000000D-01  1.1547983373066D+00  1.4420430465712D-04
    78  7.7000000000000D-01  1.1584775628959D+00 -9.0065094405590D-03
    79  7.8000000000000D-01  1.1616630599040D+00 -1.8163270756543D-02
    80  7.9000000000000D-01  1.1643330774935D+00 -2.7238464837697D-02
    81  8.0000000000000D-01  1.1664656672014D+00 -3.6142114743682D-02
    82  8.1000000000000D-01  1.1680387944043D+00 -4.4782327080392D-02
    83  8.2000000000000D-01  1.1690304532328D+00 -5.3065753994800D-02
    84  8.3000000000000D-01  1.1694187843928D+00 -6.0898069250133D-02
    85  8.4000000000000D-01  1.1691821953337D+00 -6.8184456056725D-02
    86  8.5000000000000D-01  1.1682994821813D+00 -7.4830104252543D-02
    87  8.6000000000000D-01  1.1667499528405D+00 -8.0740714359554D-02
    88  8.7000000000000D-01  1.1645135506601D+00 -8.5823005985048D-02
    89  8.8000000000000D-01  1.1615709780390D+00 -8.9985227993698D-02
    90  8.9000000000000D-01  1.1579038193520D+00 -9.3137667844925D-02
    91  9.0000000000000D-01  1.1534946625643D+00 -9.5193157472692D-02
    92  9.1000000000000D-01  1.1483272189075D+00 -9.6067573080242D-02
    93  9.2000000000000D-01  1.1423864399902D+00 -9.5680326231711D-02
    94  9.3000000000000D-01  1.1356586317242D+00 -9.3954843645016D-02
    95  9.4000000000000D-01  1.1281315644542D+00 -9.0819033126536D-02
    96  9.5000000000000D-01  1.1197945786938D+00 -8.6205733137720D-02
    97  9.6000000000000D-01  1.1106386858846D+00 -8.0053143546486D-02
    98  9.7000000000000D-01  1.1006566636128D+00 -7.2305235191755D-02
    99  9.8000000000000D-01  1.0898431447427D+00 -6.2912135979472D-02
   100  9.9000000000000D-01  1.0781946999457D+00 -5.1830491326017D-02
   101  1.0000000000000D+00  1.0657099131368D+00 -3.9023796880925D-02
   102  1.0100000000000D+00  1.0523894493543D+00 -2.4462701583354D-02
   103  1.0200000000000D+00  1.0382361146565D+00 -8.1252792418474D-03
   104  1.0300000000000D+00  1.0232549076394D+00  1.0002733028441D-02
   105  1.0400000000000D+00  1.0074530622213D+00  2.9927731019892D-02
   106  1.0500000000000D+00  9.9084008137436D-01  5.1648075645711D-02
   107  1.0600000000000D+00  9.7342776152789D-01  7.5153962331442D-02
   108  1.0700000000000D+00  9.5523020741054D-01  1.0042732857644D-01
   109  1.0800000000000D+00  9.3626383714128D-01  1.2744180050123D-01
   110  1.0900000000000D+00  9.1654737742723D-01  1.5616267899717D-01
   111  1.1000000000000D+00  8.9610184877057D-01  1.8654696590925D-01
   112  1.1100000000000D+00  8.7495054063439D-01  2.1854343048422D-01
   113  1.1200000000000D+00  8.5311897656832D-01  2.5209271610345D-01
   114  1.1300000000000D+00  8.3063486934061D-01  2.8712748712934D-01
   115  1.1400000000000D+00  8.0752806617452D-01  3.2357261547960D-01
   116  1.1500000000000D+00  7.8383048422779D-01  3.6134540637358D-01
   117  1.1600000000000D+00  7.5957603651378D-01  4.0035586244540D-01
   118  1.1700000000000D+00  7.3480054850317D-01  4.4050698525038D-01
   119  1.1800000000000D+00  7.0954166569185D-01  4.8169511299742D-01
   120  1.1900000000000D+00  6.8383875246419D-01  5.2381029315714D-01
   121  1.2000000000000D+00  6.5773278263252D-01  5.6673668838242D-01
   122  1.2100000000000D+00  6.3126622207489D-01  6.1035301400596D-01
   123  1.2200000000000D+00  6.0448290391784D-01  6.5453300527646D-01
   124  1.2300000000000D+00  5.7742789677435D-01  6.9914591223377D-01
   125  1.2400000000000D+00  5.5014736657143D-01  7.4405702002109D-01
   126  1.2500000000000D+00  5.2268843252837D-01  7.8912819232377D-01
   127  1.2600000000000D+00  4.9509901789077D-01  8.3421843544213D-01
   128  1.2700000000000D+00  4.6742769605415D-01  8.7918448038807D-01
   129  1.2800000000000D+00  4.3972353272344D-01  9.2388138034427D-01
   130  1.2900000000000D+00  4.1203592478932D-01  9.6816312068303D-01
   131  1.3000000000000D+00  3.8441443662348D-01  1.0118832386573D+00
   132  1.3100000000000D+00  3.5690863449691D-01  1.0548954498684D+00
   133  1.3200000000000D+00  3.2956791985337D-01  1.0970542785021D+00
   134  1.3300000000000D+00  3.0244136217212D-01  1.1382156883222D+00
   135  1.3400000000000D+00  2.7557753215660D-01  1.1782377113978D+00
   136  1.3500000000000D+00  2.4902433599884D-01  1.2169810714930D+00
   137  1.3600000000000D+00  2.2282885144846D-01  1.2543097991430D+00
   138  1.3700000000000D+00  1.9703716643721D-01  1.2900918353388D+00
   139  1.3800000000000D+00  1.7169422097192D-01  1.3241996209234D+00
   140  1.3900000000000D+00  1.4684365301054D-01  1.3565106687851D+00
   141  1.4000000000000D+00  1.2252764903837D-01  1.3869081159315D+00
   142  1.4100000000000D+00  9.8786799979744D-02  1.4152812528822D+00
   143  1.4200000000000D+00  7.5659963154349D-02  1.4415260274965D+00
   144  1.4300000000000D+00  5.3184130861993D-02  1.4655455208997D+00
   145  1.4400000000000D+00  3.1394306202221D-02  1.4872503930688D+00
   146  1.4500000000000D+00  1.0323386739539D-02  1.5065592956254D+00
   147  1.4600000000000D+00 -9.9979435580141D-03  1.5233992501663D+00
   148  1.4700000000000D+00 -2.9541313472675D-02  1.5377059895777D+00
   149  1.4800000000000D+00 -4.8280754476497D-02  1.5494242611833D+00
   150  1.4900000000000D+00 -6.6192780946638D-02  1.5585080897034D+00
   151  1.5000000000000D+00 -8.3256460326924D-02  1.5649209987782D+00
   152  1.5100000000000D+00 -9.9453472971902D-02  1.5686361900817D+00
   153  1.5200000000000D+00 -1.1476816126475D-01  1.5696366784416D+00
   154  1.5300000000000D+00 -1.2918756802742D-01  1.5679153831914D+00
   155  1.5400000000000D+00 -1.4270146375461D-01  1.5634751739175D+00
   156  1.5500000000000D+00 -1.5530236288807D-01  1.5563288716631D+00
   157  1.5600000000000D+00 -1.6698552877066D-01  1.5464992042115D+00
   158  1.5700000000000D+00 -1.7774896751890D-01  1.5340187166026D+00
   159  1.5800000000000D+00 -1.8759341068971D-01  1.5189296365017D+00
   160  1.5900000000000D+00 -1.9652228693889D-01  1.5012836953994D+00
   161  1.6000000000000D+00 -2.0454168280744D-01  1.4811419063585D+00
   162  1.6100000000000D+00 -2.1166029278460D-01  1.4585742990805D+00
   163  1.6200000000000D+00 -2.1788935903506D-01  1.4336596140590D+00
   164  1.6300000000000D+00 -2.2324260090193D-01  1.4064849564399D+00
   165  1.6400000000000D+00 -2.2773613479586D-01  1.3771454122785D+00
   166  1.6500000000000D+00 -2.3138838456851D-01  1.3457436277654D+00
   167  1.6600000000000D+00 -2.3421998316115D-01  1.3123893548488D+00
   168  1.6700000000000D+00 -2.3625366564495D-01  1.2771989639135D+00
   169  1.6800000000000D+00 -2.3751415457162D-01  1.2402949274530D+00
   170  1.6900000000000D+00 -2.3802803780557D-01  1.2018052756380D+00
   171  1.7000000000000D+00 -2.3782363982558D-01  1.1618630279788D+00
   172  1.7100000000000D+00 -2.3693088675856D-01  1.1206056023772D+00
   173  1.7200000000000D+00 -2.3538116614270D-01  1.0781742057751D+00
   174  1.7300000000000D+00 -2.3320718180661D-01  1.0347132082218D+00
   175  1.7400000000000D+00 -2.3044280481605D-01  9.9036950434500D-01
   176  1.7500000000000D+00 -2.2712292102042D-01  9.4529186465799D-01
   177  1.7600000000000D+00 -2.2328327606273D-01  8.9963028029540D-01
   178  1.7700000000000D+00 -2.1896031853283D-01  8.5353530421616D-01
   179  1.7800000000000D+00 -2.1419104202202D-01  8.0715739201001D-01
   180  1.7900000000000D+00 -2.0901282687550D-01  7.6064624580452D-01
   181  1.8000000000000D+00 -2.0346328231680D-01  7.1415016406352D-01
   182  1.8100000000000D+00 -1.9758008977967D-01  6.6781540087763D-01
   183  1.8200000000000D+00 -1.9140084811242D-01  6.2178553753699D-01
   184  1.8300000000000D+00 -1.8496292139238D-01  5.7620086947900D-01
   185  1.8400000000000D+00 -1.7830329014506D-01  5.3119781201973D-01
   186  1.8500000000000D+00 -1.7145840640717D-01  4.8690832657080D-01
   187  1.8600000000000D+00 -1.6446405375717D-01  4.4345937224584D-01
   188  1.8700000000000D+00 -1.5735521221859D-01  4.0097238214251D-01
   189  1.8800000000000D+00 -1.5016592962137D-01  3.5956277126175D-01
   190  1.8900000000000D+00 -1.4292919884919D-01  3.1933947323403D-01
   191  1.9000000000000D+00 -1.3567684264963D-01  2.8040451317458D-01
   192  1.9100000000000D+00 -1.2843940550343D-01  2.4285261419370D-01
   193  1.9200000000000D+00 -1.2124605370254D-01  2.0677084248150D-01
   194  1.9300000000000D+00 -1.1412448377100D-01  1.7223829136654D-01
   195  1.9400000000000D+00 -1.0710083930451D-01  1.3932580447893D-01
   196  1.9500000000000D+00 -1.0019963748338D-01  1.0809574338117D-01
   197  1.9600000000000D+00 -9.3443703876414D-02  7.8601793367691D-02
   198  1.9700000000000D+00 -8.6854117904186D-02  5.0888817680223D-02
   199  1.9800000000000D+00 -8.0450166902935D-02  2.4992750894779D-02
   200  1.9900000000000D+00 -7.4249310642934D-02  9.4053943030634D-04
   201  2.0000000000000D+00 -6.8267155430196D-02 -2.1249874823047D-02
   202  2.0100000000000D+00 -6.2517437706874D-02 -4.1569528315439D-02
   203  2.0200000000000D+00 -5.7012018229085D-02 -6.0018362566263D-02
   204  2.0300000000000D+00 -5.1760884672931D-02 -7.6605113361027D-02
   205  2.0400000000000D+00 -4.6772165022630D-02 -9.1347152369957D-02
   206  2.0500000000000D+00 -4.2052149263998D-02 -1.0427029212974D-01
   207  2.0600000000000D+00 -3.7605320455730D-02 -1.1540854993405D-01
   208  2.0700000000000D+00 -3.3434394841975D-02 -1.2480387228418D-01
   209  2.0800000000000D+00 -2.9540369375572D-02 -1.3250582712813D-01
   210  2.0900000000000D+00 -2.5922578441179D-02 -1.3857125639511D-01
   211  2.1000000000000D+00 -2.2578757029623D-02 -1.4306390082772D-01
   212  2.1100000000000D+00 -1.9505111499269D-02 -1.4605399246466D-01
   213  2.1200000000000D+00 -1.6696396956723D-02 -1.4761781912366D-01
   214  2.1300000000000D+00 -1.4145999968306D-02 -1.4783726657507D-01
   215  2.1400000000000D+00 -1.1846026789888D-02 -1.4679933897759D-01
   216  2.1500000000000D+00 -9.7873990537473D-03 -1.4459564361153D-01
   217  2.1600000000000D+00 -7.9599497407126D-03 -1.4132188134636D-01
   218  2.1700000000000D+00 -6.3525119759715D-03 -1.3707738237896D-01
   219  2.1800000000000D+00 -4.9530647505885D-03 -1.3196433405527D-01
   220  2.1900000000000D+00 -3.7488002627315D-03 -1.2608743869311D-01
   221  2.2000000000000D+00 -2.7262083344571D-03 -1.1955349543386D-01
   222  2.2100000000000D+00 -1.8711910026046D-03 -1.1247081118919D-01
   223  2.2200000000000D+00 -1.1692819932007D-03 -1.0494802000435D-01
   224  2.2300000000000D+00 -6.0580069550756D-04 -9.7093249078972D-02
   225  2.2400000000000D+00 -1.6603280848472D-04 -8.9013210720941D-02
   226  2.2500000000000D+00  1.6459822126365D-04 -8.0812334577391D-02
   227  2.2600000000000D+00  4.0029088528627D-04 -7.2591512676188D-02
   228  2.2700000000000D+00  5.5482864941238D-04 -6.4447997086841D-02
   229  2.2800000000000D+00  6.4146396024735D-04 -5.6474861611246D-02
   230  2.2900000000000D+00  6.7281990943972D-04 -4.8760553818877D-02
   231  2.3000000000000D+00  6.6076786988960D-04 -4.1388291901673D-02
   232  2.3100000000000D+00  6.1634261323325D-04 -3.4435683335243D-02
   233  2.3200000000000D+00  5.4965190721085D-04 -2.7974300043817D-02
   234  2.3300000000000D+00  4.7000584935368D-04 -2.2075776767413D-02
   235  2.3400000000000D+00  3.8499615422793D-04 -1.6785473068249D-02
   236  2.3500000000000D+00  3.0109378621534D-04 -1.2145747004379D-02
   237  2.3600000000000D+00  2.2361088635842D-04 -8.1952918484013D-03
   238  2.3700000000000D+00  1.5991819352827D-04 -5.0369390307802D-03
   239  2.3800000000000D+00  1.1522293775521D-04 -2.7334374080072D-03
   240  2.3900000000000D+00  8.8778865260401D-05 -1.2549620517802D-03
   241  2.4000000000000D+00  7.0735263631921D-05 -4.2629555164493D-04
   242  2.4100000000000D+00  5.0586284606834D-05 -5.0215970157413D-05
   243  2.4200000000000D+00  2.6745947627209D-05  5.2928570583856D-05
   244  2.4300000000000D+00  5.8102405285779D-06  2.1389231897987D-05
   245  2.4400000000000D+00 -4.4982992237485D-06 -2.0652464187957D-05
   246  2.4500000000000D+00 -5.1351078032039D-06 -2.8481620602718D-05
   247  2.4600000000000D+00 -1.2827956834231D-06 -8.0299905422901D-06
   248  2.4700000000000D+00  1.0301903564647D-06  3.1449550370103D-06
   249  2.4800000000000D+00  1.2221776960228D-06  4.1514092219133D-06
   250  2.4900000000000D+00  2.8420943843737D-07  1.0476492540302D-06
   251  2.5000000000000D+00 -1.3906886824259D-07  4.6214751591983D-07
   252  2.5100000000000D+00 -1.6681995934916D-07  5.5436871525101D-07
   253  2.5200000000000D+00 -3.8763221707759D-08  1.2881622499466D-07
   254  2.5300000000000D+00  0.0000000000000D+00  0.0000000000000D+00
   255  2.5400000000000D+00  0.0000000000000D+00  0.0000000000000D+00
   256  2.5500000000000D+00  0.0000000000000D+00  0.0000000000000D+00
   257  2.5600000000000D+00  0.0000000000000D+00  0.0000000000000D+00
   258  2.5700000000000D+00  0.0000000000000D+00  0.0000000000000D+00
   259  2.5800000000000D+00  0.0000000000000D+00  0.0000000000000D+00
   260  2.5900000000000D+00  0.0000000000000D+00  0.0000000000000D+00
   261  2.6000000000000D+00  0.0000000000000D+00  0.0000000000000D+00
   262  2.6100000000000D+00  0.0000000000000D+00  0.0000000000000D+00
   263  2.6200000000000D+00  0.0000000000000D+00  0.0000000000000D+00
   264  2.6300000000000D+00  0.0000000000000D+00  0.0000000000000D+00
   265  2.6400000000000D+00  0.0000000000000D+00  0.0000000000000D+00
   266  2.6500000000000D+00  0.0000000000000D+00  0.0000000000000D+00
   267  2.6600000000000D+00  0.0000000000000D+00  0.0000000000000D+00
   268  2.6700000000000D+00  0.0000000000000D+00  0.0000000000000D+00
   269  2.6800000000000D+00  0.0000000000000D+00  0.0000000000000D+00
   270  2.6900000000000D+00  0.0000000000000D+00  0.0000000000000D+00
   271  2.7000000000000D+00  0.0000000000000D+00  0.0000000000000D+00
   272  2.7100000000000D+00  0.0000000000000D+00  0.0000000000000D+00
   273  2.7200000000000D+00  0.0000000000000D+00  0.0000000000000D+00
   274  2.7300000000000D+00  0.0000000000000D+00  0.0000000000000D+00
   275  2.7400000000000D+00  0.0000000000000D+00  0.0000000000000D+00
   276  2.7500000000000D+00  0.0000000000000D+00  0.0000000000000D+00
   277  2.7600000000000D+00  0.0000000000000D+00  0.0000000000000D+00
   278  2.7700000000000D+00  0.0000000000000D+00  0.0000000000000D+00
   279  2.7800000000000D+00  0.0000000000000D+00  0.0000000000000D+00
   280  2.7900000000000D+00  0.0000000000000D+00  0.0000000000000D+00
   281  2.8000000000000D+00  0.0000000000000D+00  0.0000000000000D+00
   282  2.8100000000000D+00  0.0000000000000D+00  0.0000000000000D+00
   283  2.8200000000000D+00  0.0000000000000D+00  0.0000000000000D+00
   284  2.8300000000000D+00  0.0000000000000D+00  0.0000000000000D+00
   285  2.8400000000000D+00  0.0000000000000D+00  0.0000000000000D+00
   286  2.8500000000000D+00  0.0000000000000D+00  0.0000000000000D+00
   287  2.8600000000000D+00  0.0000000000000D+00  0.0000000000000D+00
   288  2.8700000000000D+00  0.0000000000000D+00  0.0000000000000D+00
   289  2.8800000000000D+00  0.0000000000000D+00  0.0000000000000D+00
   290  2.8900000000000D+00  0.0000000000000D+00  0.0000000000000D+00
   291  2.9000000000000D+00  0.0000000000000D+00  0.0000000000000D+00
   292  2.9100000000000D+00  0.0000000000000D+00  0.0000000000000D+00
   293  2.9200000000000D+00  0.0000000000000D+00  0.0000000000000D+00
   294  2.9300000000000D+00  0.0000000000000D+00  0.0000000000000D+00
   295  2.9400000000000D+00  0.0000000000000D+00  0.0000000000000D+00
   296  2.9500000000000D+00  0.0000000000000D+00  0.0000000000000D+00
   297  2.9600000000000D+00  0.0000000000000D+00  0.0000000000000D+00
   298  2.9700000000000D+00  0.0000000000000D+00  0.0000000000000D+00
   299  2.9800000000000D+00  0.0000000000000D+00  0.0000000000000D+00
   300  2.9900000000000D+00  0.0000000000000D+00  0.0000000000000D+00
   301  3.0000000000000D+00  0.0000000000000D+00  0.0000000000000D+00
   302  3.0100000000000D+00  0.0000000000000D+00  0.0000000000000D+00
   303  3.0200000000000D+00  0.0000000000000D+00  0.0000000000000D+00
   304  3.0300000000000D+00  0.0000000000000D+00  0.0000000000000D+00
   305  3.0400000000000D+00  0.0000000000000D+00  0.0000000000000D+00
   306  3.0500000000000D+00  0.0000000000000D+00  0.0000000000000D+00
   307  3.0600000000000D+00  0.0000000000000D+00  0.0000000000000D+00
   308  3.0700000000000D+00  0.0000000000000D+00  0.0000000000000D+00
   309  3.0800000000000D+00  0.0000000000000D+00  0.0000000000000D+00
   310  3.0900000000000D+00  0.0000000000000D+00  0.0000000000000D+00
   311  3.1000000000000D+00  0.0000000000000D+00  0.0000000000000D+00
   312  3.1100000000000D+00  0.0000000000000D+00  0.0000000000000D+00
   313  3.1200000000000D+00  0.0000000000000D+00  0.0000000000000D+00
   314  3.1300000000000D+00  0.0000000000000D+00  0.0000000000000D+00
   315  3.1400000000000D+00  0.0000000000000D+00  0.0000000000000D+00
   316  3.1500000000000D+00  0.0000000000000D+00  0.0000000000000D+00
   317  3.1600000000000D+00  0.0000000000000D+00  0.0000000000000D+00
   318  3.1700000000000D+00  0.0000000000000D+00  0.0000000000000D+00
   319  3.1800000000000D+00  0.0000000000000D+00  0.0000000000000D+00
   320  3.1900000000000D+00  0.0000000000000D+00  0.0000000000000D+00
   321  3.2000000000000D+00  0.0000000000000D+00  0.0000000000000D+00
   322  3.2100000000000D+00  0.0000000000000D+00  0.0000000000000D+00
   323  3.2200000000000D+00  0.0000000000000D+00  0.0000000000000D+00
   324  3.2300000000000D+00  0.0000000000000D+00  0.0000000000000D+00
   325  3.2400000000000D+00  0.0000000000000D+00  0.0000000000000D+00
   326  3.2500000000000D+00  0.0000000000000D+00  0.0000000000000D+00
   327  3.2600000000000D+00  0.0000000000000D+00  0.0000000000000D+00
   328  3.2700000000000D+00  0.0000000000000D+00  0.0000000000000D+00
   329  3.2800000000000D+00  0.0000000000000D+00  0.0000000000000D+00
   330  3.2900000000000D+00  0.0000000000000D+00  0.0000000000000D+00
   331  3.3000000000000D+00  0.0000000000000D+00  0.0000000000000D+00
   332  3.3100000000000D+00  0.0000000000000D+00  0.0000000000000D+00
   333  3.3200000000000D+00  0.0000000000000D+00  0.0000000000000D+00
   334  3.3300000000000D+00  0.0000000000000D+00  0.0000000000000D+00
   335  3.3400000000000D+00  0.0000000000000D+00  0.0000000000000D+00
   336  3.3500000000000D+00  0.0000000000000D+00  0.0000000000000D+00
   337  3.3600000000000D+00  0.0000000000000D+00  0.0000000000000D+00
   338  3.3700000000000D+00  0.0000000000000D+00  0.0000000000000D+00
   339  3.3800000000000D+00  0.0000000000000D+00  0.0000000000000D+00
   340  3.3900000000000D+00  0.0000000000000D+00  0.0000000000000D+00
   341  3.4000000000000D+00  0.0000000000000D+00  0.0000000000000D+00
   342  3.4100000000000D+00  0.0000000000000D+00  0.0000000000000D+00
   343  3.4200000000000D+00  0.0000000000000D+00  0.0000000000000D+00
   344  3.4300000000000D+00  0.0000000000000D+00  0.0000000000000D+00
   345  3.4400000000000D+00  0.0000000000000D+00  0.0000000000000D+00
   346  3.4500000000000D+00  0.0000000000000D+00  0.0000000000000D+00
   347  3.4600000000000D+00  0.0000000000000D+00  0.0000000000000D+00
   348  3.4700000000000D+00  0.0000000000000D+00  0.0000000000000D+00
   349  3.4800000000000D+00  0.0000000000000D+00  0.0000000000000D+00
   350  3.4900000000000D+00  0.0000000000000D+00  0.0000000000000D+00
   351  3.5000000000000D+00  0.0000000000000D+00  0.0000000000000D+00
   352  3.5100000000000D+00  0.0000000000000D+00  0.0000000000000D+00
   353  3.5200000000000D+00  0.0000000000000D+00  0.0000000000000D+00
   354  3.5300000000000D+00  0.0000000000000D+00  0.0000000000000D+00
   355  3.5400000000000D+00  0.0000000000000D+00  0.0000000000000D+00
   356  3.5500000000000D+00  0.0000000000000D+00  0.0000000000000D+00
   357  3.5600000000000D+00  0.0000000000000D+00  0.0000000000000D+00
   358  3.5700000000000D+00  0.0000000000000D+00  0.0000000000000D+00
   359  3.5800000000000D+00  0.0000000000000D+00  0.0000000000000D+00
   360  3.5900000000000D+00  0.0000000000000D+00  0.0000000000000D+00
   361  3.6000000000000D+00  0.0000000000000D+00  0.0000000000000D+00
   362  3.6100000000000D+00  0.0000000000000D+00  0.0000000000000D+00
   363  3.6200000000000D+00  0.0000000000000D+00  0.0000000000000D+00
   364  3.6300000000000D+00  0.0000000000000D+00  0.0000000000000D+00
   365  3.6400000000000D+00  0.0000000000000D+00  0.0000000000000D+00
   366  3.6500000000000D+00  0.0000000000000D+00  0.0000000000000D+00
   367  3.6600000000000D+00  0.0000000000000D+00  0.0000000000000D+00
   368  3.6700000000000D+00  0.0000000000000D+00  0.0000000000000D+00
   369  3.6800000000000D+00  0.0000000000000D+00  0.0000000000000D+00
   370  3.6900000000000D+00  0.0000000000000D+00  0.0000000000000D+00
   371  3.7000000000000D+00  0.0000000000000D+00  0.0000000000000D+00
   372  3.7100000000000D+00  0.0000000000000D+00  0.0000000000000D+00
   373  3.7200000000000D+00  0.0000000000000D+00  0.0000000000000D+00
   374  3.7300000000000D+00  0.0000000000000D+00  0.0000000000000D+00
   375  3.7400000000000D+00  0.0000000000000D+00  0.0000000000000D+00
   376  3.7500000000000D+00  0.0000000000000D+00  0.0000000000000D+00
   377  3.7600000000000D+00  0.0000000000000D+00  0.0000000000000D+00
   378  3.7700000000000D+00  0.0000000000000D+00  0.0000000000000D+00
   379  3.7800000000000D+00  0.0000000000000D+00  0.0000000000000D+00
   380  3.7900000000000D+00  0.0000000000000D+00  0.0000000000000D+00
   381  3.8000000000000D+00  0.0000000000000D+00  0.0000000000000D+00
   382  3.8100000000000D+00  0.0000000000000D+00  0.0000000000000D+00
   383  3.8200000000000D+00  0.0000000000000D+00  0.0000000000000D+00
   384  3.8300000000000D+00  0.0000000000000D+00  0.0000000000000D+00
   385  3.8400000000000D+00  0.0000000000000D+00  0.0000000000000D+00
   386  3.8500000000000D+00  0.0000000000000D+00  0.0000000000000D+00
   387  3.8600000000000D+00  0.0000000000000D+00  0.0000000000000D+00
   388  3.8700000000000D+00  0.0000000000000D+00  0.0000000000000D+00
   389  3.8800000000000D+00  0.0000000000000D+00  0.0000000000000D+00
   390  3.8900000000000D+00  0.0000000000000D+00  0.0000000000000D+00
   391  3.9000000000000D+00  0.0000000000000D+00  0.0000000000000D+00
   392  3.9100000000000D+00  0.0000000000000D+00  0.0000000000000D+00
   393  3.9200000000000D+00  0.0000000000000D+00  0.0000000000000D+00
   394  3.9300000000000D+00  0.0000000000000D+00  0.0000000000000D+00
   395  3.9400000000000D+00  0.0000000000000D+00  0.0000000000000D+00
   396  3.9500000000000D+00  0.0000000000000D+00  0.0000000000000D+00
   397  3.9600000000000D+00  0.0000000000000D+00  0.0000000000000D+00
   398  3.9700000000000D+00  0.0000000000000D+00  0.0000000000000D+00
   399  3.9800000000000D+00  0.0000000000000D+00  0.0000000000000D+00
   400  3.9900000000000D+00  0.0000000000000D+00  0.0000000000000D+00
   401  4.0000000000000D+00  0.0000000000000D+00  0.0000000000000D+00
   402  4.0100000000000D+00  0.0000000000000D+00  0.0000000000000D+00
   403  4.0200000000000D+00  0.0000000000000D+00  0.0000000000000D+00
   404  4.0300000000000D+00  0.0000000000000D+00  0.0000000000000D+00
   405  4.0400000000000D+00  0.0000000000000D+00  0.0000000000000D+00
   406  4.0500000000000D+00  0.0000000000000D+00  0.0000000000000D+00
   407  4.0600000000000D+00  0.0000000000000D+00  0.0000000000000D+00
   408  4.0700000000000D+00  0.0000000000000D+00  0.0000000000000D+00
   409  4.0800000000000D+00  0.0000000000000D+00  0.0000000000000D+00
   410  4.0900000000000D+00  0.0000000000000D+00  0.0000000000000D+00
   411  4.1000000000000D+00  0.0000000000000D+00  0.0000000000000D+00
   412  4.1100000000000D+00  0.0000000000000D+00  0.0000000000000D+00
   413  4.1200000000000D+00  0.0000000000000D+00  0.0000000000000D+00
   414  4.1300000000000D+00  0.0000000000000D+00  0.0000000000000D+00
   415  4.1400000000000D+00  0.0000000000000D+00  0.0000000000000D+00
   416  4.1500000000000D+00  0.0000000000000D+00  0.0000000000000D+00
   417  4.1600000000000D+00  0.0000000000000D+00  0.0000000000000D+00
   418  4.1700000000000D+00  0.0000000000000D+00  0.0000000000000D+00
   419  4.1800000000000D+00  0.0000000000000D+00  0.0000000000000D+00
   420  4.1900000000000D+00  0.0000000000000D+00  0.0000000000000D+00
   421  4.2000000000000D+00  0.0000000000000D+00  0.0000000000000D+00
   422  4.2100000000000D+00  0.0000000000000D+00  0.0000000000000D+00