Lu    ONCVPSP-3.3.0  r_core=   1.56315   1.60089   1.45518   1.86943
     71.0000     25.0000      220408    zatom,zion,pspd
     8       2   3     4   600     0    pspcod,pspxc,lmax,lloc,mmax,r2well
  5.99000000  0.00000000  0.00000000    rchrg fchrg qchrg
     2     2     2     2     0    nproj
     1     1           extension_switch
   0                         1.2927745859853D+01  1.3471614388212D+00
     1  0.0000000000000D+00 -1.2189449449806D-10  6.4194588533795D-10
     2  1.0000000000000D-02  4.6854715304103D-02 -2.0128126112138D-02
     3  2.0000000000000D-02  9.3669577086874D-02 -4.0168359367043D-02
     4  3.0000000000000D-02  1.4040477397732D-01 -6.0033607038253D-02
     5  4.0000000000000D-02  1.8702057731670D-01 -7.9638364663623D-02
     6  5.0000000000000D-02  2.3347737857524D-01 -9.8899480349857D-02
     7  6.0000000000000D-02  2.7973572212933D-01 -1.1773688374503D-01
     8  7.0000000000000D-02  3.2575633199802D-01 -1.3607426866447D-01
     9  8.0000000000000D-02  3.7150013125942D-01 -1.5383971899739D-01
    10  9.0000000000000D-02  4.1692825301684D-01 -1.7096626830961D-01
    11  1.0000000000000D-01  4.6200204195918D-01 -1.8739238448223D-01
    12  1.1000000000000D-01  5.0668304575728D-01 -2.0306237177596D-01
    13  1.2000000000000D-01  5.5093299575579D-01 -2.1792668387330D-01
    14  1.3000000000000D-01  5.9471377665428D-01 -2.3194214271149D-01
    15  1.4000000000000D-01  6.3798738512020D-01 -2.4507205926346D-01
    16  1.5000000000000D-01  6.8071587753441D-01 -2.5728625383394D-01
    17  1.6000000000000D-01  7.2286130733522D-01 -2.6856097489729D-01
    18  1.7000000000000D-01  7.6438565269437D-01 -2.7887871699317D-01
    19  1.8000000000000D-01  8.0525073552421D-01 -2.8822793969764D-01
    20  1.9000000000000D-01  8.4541813307580D-01 -2.9660269118077D-01
    21  2.0000000000000D-01  8.8484908363853D-01 -3.0400214132838D-01
    22  2.1000000000000D-01  9.2350438808827D-01 -3.1043003082571D-01
    23  2.2000000000000D-01  9.6134430925092D-01 -3.1589404395537D-01
    24  2.3000000000000D-01  9.9832847124510D-01 -3.2040511413214D-01
    25  2.4000000000000D-01  1.0344157611406D+00 -3.2397667236588D-01
    26  2.5000000000000D-01  1.0695642354125D+00 -3.2662384989327D-01
    27  2.6000000000000D-01  1.1037310337833D+00 -3.2836264713400D-01
    28  2.7000000000000D-01  1.1368723031213D+00 -3.2920908189380D-01
    29  2.8000000000000D-01  1.1689431341061D+00 -3.2917833033998D-01
    30  2.9000000000000D-01  1.1998975133705D+00 -3.2828387470820D-01
    31  3.0000000000000D-01  1.2296882937909D+00 -3.2653667194816D-01
    32  3.1000000000000D-01  1.2582671855158D+00 -3.2394435757753D-01
    33  3.2000000000000D-01  1.2855847702003D+00 -3.2051049888052D-01
    34  3.3000000000000D-01  1.3115905407463D+00 -3.1623391125925D-01
    35  3.4000000000000D-01  1.3362329686442D+00 -3.1110805102084D-01
    36  3.5000000000000D-01  1.3594596007612D+00 -3.0512049716389D-01
    37  3.6000000000000D-01  1.3812171871365D+00 -2.9825253382056D-01
    38  3.7000000000000D-01  1.4014518410183D+00 -2.9047884392024D-01
    39  3.8000000000000D-01  1.4201092320220D+00 -2.8176732337836D-01
    40  3.9000000000000D-01  1.4371348128995D+00 -2.7207902369289D-01
    41  4.0000000000000D-01  1.4524740799950D+00 -2.6136822926274D-01
    42  4.1000000000000D-01  1.4660728670263D+00 -2.4958267404638D-01
    43  4.2000000000000D-01  1.4778776713737D+00 -2.3666390037303D-01
    44  4.3000000000000D-01  1.4878360115935D+00 -2.2254776082195D-01
    45  4.4000000000000D-01  1.4958968143973D+00 -2.0716506212320D-01
    46  4.5000000000000D-01  1.5020108288624D+00 -1.9044234802490D-01
    47  4.6000000000000D-01  1.5061310651698D+00 -1.7230281604759D-01
    48  4.7000000000000D-01  1.5082132547036D+00 -1.5266736102564D-01
    49  4.8000000000000D-01  1.5082163279068D+00 -1.3145573635033D-01
    50  4.9000000000000D-01  1.5061029058666D+00 -1.0858782190233D-01
    51  5.0000000000000D-01  1.5018398012158D+00 -8.3984985819886D-02
    52  5.1000000000000D-01  1.4953985235824D+00 -5.7571525521576D-02
    53  5.2000000000000D-01  1.4867557845083D+00 -2.9276171809427D-02
    54  5.3000000000000D-01  1.4758939964942D+00  9.6636155089074D-04
    55  5.4000000000000D-01  1.4628017606165D+00  3.3213801621311D-02
    56  5.5000000000000D-01  1.4474743370043D+00  6.7514733344057D-02
    57  5.6000000000000D-01  1.4299140923740D+00  1.0390703056060D-01
    58  5.7000000000000D-01  1.4101309187851D+00  1.4241632227731D-01
    59  5.8000000000000D-01  1.3881426178224D+00  1.8305451577788D-01
    60  5.9000000000000D-01  1.3639752445121D+00  2.2581839823729D-01
    61  6.0000000000000D-01  1.3376634054581D+00  2.7068833827126D-01
    62  6.1000000000000D-01  1.3092505059317D+00  3.1762710835801D-01
    63  6.2000000000000D-01  1.2787889409651D+00  3.6657884828970D-01
    64  6.3000000000000D-01  1.2463402258850D+00  4.1746818875485D-01
    65  6.4000000000000D-01  1.2119750621752D+00  4.7019955282901D-01
    66  6.5000000000000D-01  1.1757733350743D+00  5.2465665155575D-01
    67  6.6000000000000D-01  1.1378240398885D+00  5.8070218796655D-01
    68  6.7000000000000D-01  1.0982251346282D+00  6.3817778181842D-01
    69  6.8000000000000D-01  1.0570833172587D+00  6.9690412504067D-01
    70  6.9000000000000D-01  1.0145137265728D+00  7.5668137541147D-01
    71  7.0000000000000D-01  9.7063956644683D-01  8.1728979335977D-01
    72  7.1000000000000D-01  9.2559165402909D-01  8.7849062400617D-01
    73  7.2000000000000D-01  8.7950789320574D-01  9.4002722369481D-01
    74  7.3000000000000D-01  8.3253267550220D-01  1.0016264273268D+00
    75  7.4000000000000D-01  7.8481621138973D-01  1.0630001498274D+00
    76  7.5000000000000D-01  7.3651379576662D-01  1.1238472121207D+00
    77  7.6000000000000D-01  6.8778501217143D-01  1.1838553790344D+00
    78  7.7000000000000D-01  6.3879288103855D-01  1.2427035937163D+00
    79  7.8000000000000D-01  5.8970295802544D-01  1.3000643903960D+00
    80  7.9000000000000D-01  5.4068238911214D-01  1.3556064647360D+00
    81  8.0000000000000D-01  4.9189892978883D-01  1.4089973786087D+00
    82  8.1000000000000D-01  4.4351993619810D-01  1.4599063739540D+00
    83  8.2000000000000D-01  3.9571133657705D-01  1.5080072684331D+00
    84  8.3000000000000D-01  3.4863659174338D-01  1.5529814039453D+00
    85  8.4000000000000D-01  3.0245565368310D-01  1.5945206177251D+00
    86  8.5000000000000D-01  2.5732393151903D-01  1.6323302047220D+00
    87  8.6000000000000D-01  2.1339127426548D-01  1.6661318392945D+00
    88  8.7000000000000D-01  1.7080097980167D-01  1.6956664239490D+00
    89  8.8000000000000D-01  1.2968883942172D-01  1.7206968329203D+00
    90  8.9000000000000D-01  9.0182227142535D-02  1.7410105188430D+00
    91  9.0000000000000D-01  5.2399242671621D-02  1.7564219515923D+00
    92  9.1000000000000D-01  1.6447916557504D-02  1.7667748595831D+00
    93  9.2000000000000D-01 -1.7574514432689D-02  1.7719442453942D+00
    94  9.3000000000000D-01 -4.9582254235389D-02  1.7718381495179D+00
    95  9.4000000000000D-01 -7.9501509900095D-02  1.7663991383101D+00
    96  9.5000000000000D-01 -1.0727096341683D-01  1.7556054947984D+00
    97  9.6000000000000D-01 -1.3284214771014D-01  1.7394720938866D+00
    98  9.7000000000000D-01 -1.5617972243249D-01  1.7180509466221D+00
    99  9.8000000000000D-01 -1.7726164612812D-01  1.6914314015335D+00
   100  9.9000000000000D-01 -1.9607924234680D-01  1.6597399946622D+00
   101  1.0000000000000D+00 -2.1263715825992D-01  1.6231399434016D+00
   102  1.0100000000000D+00 -2.2695321544339D-01  1.5818302832736D+00
   103  1.0200000000000D+00 -2.3905815350547D-01  1.5360446504345D+00
   104  1.0300000000000D+00 -2.4899526831368D-01  1.4860497166034D+00
   105  1.0400000000000D+00 -2.5681994761276D-01  1.4321432868706D+00
   106  1.0500000000000D+00 -2.6259910787875D-01  1.3746520746729D+00
   107  1.0600000000000D+00 -2.6641053715631D-01  1.3139291714978D+00
   108  1.0700000000000D+00 -2.6834214965691D-01  1.2503512326281D+00
   109  1.0800000000000D+00 -2.6849115870665D-01  1.1843154031814D+00
   110  1.0900000000000D+00 -2.6696317544163D-01  1.1162360116355D+00
   111  1.1000000000000D+00 -2.6387124139927D-01  1.0465410607414D+00
   112  1.1100000000000D+00 -2.5933480368528D-01  9.7566854763906D-01
   113  1.1200000000000D+00 -2.5347864205718D-01  9.0406264736004D-01
   114  1.1300000000000D+00 -2.4643175758381D-01  8.3216979501365D-01
   115  1.1400000000000D+00 -2.3832623288369D-01  7.6043470313974D-01
   116  1.1500000000000D+00 -2.2929607412015D-01  6.8929635129044D-01
   117  1.1600000000000D+00 -2.1947604504573D-01  6.1918398521852D-01
   118  1.1700000000000D+00 -2.0900050331225D-01  5.5051316267994D-01
   119  1.1800000000000D+00 -1.9800224902531D-01  4.8368188185150D-01
   120  1.1900000000000D+00 -1.8661139543699D-01  4.1906682798867D-01
   121  1.2000000000000D+00 -1.7495427106588D-01  3.5701977152458D-01
   122  1.2100000000000D+00 -1.6315236205964D-01  2.9786414895887D-01
   123  1.2200000000000D+00 -1.5132130311078D-01  2.4189185590010D-01
   124  1.2300000000000D+00 -1.3956992451444D-01  1.8936027880227D-01
   125  1.2400000000000D+00 -1.2799936195038D-01  1.4048958804404D-01
   126  1.2500000000000D+00 -1.1670223484375D-01  9.5460312191065D-02
   127  1.2600000000000D+00 -1.0576189851738D-01  5.4411210794010D-02
   128  1.2700000000000D+00 -9.5251771754653D-02  1.7437446611789D-02
   129  1.2800000000000D+00 -8.5234746863631D-02 -1.5410910112591D-02
   130  1.2900000000000D+00 -7.5762704118218D-02 -4.4129950931789D-02
   131  1.3000000000000D+00 -6.6876093191625D-02 -6.8762732060437D-02
   132  1.3100000000000D+00 -5.8603312482632D-02 -8.9401283471300D-02
   133  1.3200000000000D+00 -5.0961567825322D-02 -1.0618092906555D-01
   134  1.3300000000000D+00 -4.3958129379942D-02 -1.1927296883412D-01
   135  1.3400000000000D+00 -3.7592052939964D-02 -1.2887572572497D-01
   136  1.3500000000000D+00 -3.1854925743218D-02 -1.3521097509216D-01
   137  1.3600000000000D+00 -2.6731250448884D-02 -1.3852255121325D-01
   138  1.3700000000000D+00 -2.2199214026749D-02 -1.3907291636684D-01
   139  1.3800000000000D+00 -1.8231388265291D-02 -1.3714023149338D-01
   140  1.3900000000000D+00 -1.4795509098060D-02 -1.3301508294309D-01
   141  1.4000000000000D+00 -1.1855283453808D-02 -1.2699713539121D-01
   142  1.4100000000000D+00 -9.3712246843688D-03 -1.1939168874158D-01
   143  1.4200000000000D+00 -7.3015057338181D-03 -1.1050618327108D-01
   144  1.4300000000000D+00 -5.6028196527201D-03 -1.0064669287098D-01
   145  1.4400000000000D+00 -4.2312379427151D-03 -9.0114442862286D-02
   146  1.4500000000000D+00 -3.1430562268920D-03 -7.9202392652394D-02
   147  1.4600000000000D+00 -2.2956181541581D-03 -6.8191918111358D-02
   148  1.4700000000000D+00 -1.6481073896703D-03 -5.7349632593285D-02
   149  1.4800000000000D+00 -1.1622988357295D-03 -4.6924380551619D-02
   150  1.4900000000000D+00 -8.0326103566592D-04 -3.7144434538180D-02
   151  1.5000000000000D+00 -5.3984783120431D-04 -2.8215587898013D-02
   152  1.5100000000000D+00 -3.4637585993483D-04 -2.0315779183645D-02
   153  1.5200000000000D+00 -2.0112496264990D-04 -1.3598931192362D-02
   154  1.5300000000000D+00 -8.3381957250920D-05 -8.1787202550324D-03
   155  1.5400000000000D+00  1.1328092415328D-05 -4.1640920367383D-03
   156  1.5500000000000D+00  6.9943828916809D-05 -1.6430653177838D-03
   157  1.5600000000000D+00  8.3034927574665D-05 -4.1058647847334D-04
   158  1.5700000000000D+00  5.1465427802438D-05 -6.1867429954982D-06
   159  1.5800000000000D+00  6.6667765182525D-06  1.1177877766735D-05
   160  1.5900000000000D+00 -8.6279630218156D-06 -1.8202694436003D-05
   161  1.6000000000000D+00 -9.9057202449822D-07 -2.6221969244179D-06
   162  1.6100000000000D+00  1.9575500203024D-06  2.1288608126768D-06
   163  1.6200000000000D+00  2.8851569651844D-08  3.7662114552602D-08
   164  1.6300000000000D+00 -2.1936543856604D-07  6.1504354603356D-07
   165  1.6400000000000D+00  0.0000000000000D+00  0.0000000000000D+00
   166  1.6500000000000D+00  0.0000000000000D+00  0.0000000000000D+00
   167  1.6600000000000D+00  0.0000000000000D+00  0.0000000000000D+00
   168  1.6700000000000D+00  0.0000000000000D+00  0.0000000000000D+00
   169  1.6800000000000D+00  0.0000000000000D+00  0.0000000000000D+00
   170  1.6900000000000D+00  0.0000000000000D+00  0.0000000000000D+00
   171  1.7000000000000D+00  0.0000000000000D+00  0.0000000000000D+00
   172  1.7100000000000D+00  0.0000000000000D+00  0.0000000000000D+00
   173  1.7200000000000D+00  0.0000000000000D+00  0.0000000000000D+00
   174  1.7300000000000D+00  0.0000000000000D+00  0.0000000000000D+00
   175  1.7400000000000D+00  0.0000000000000D+00  0.0000000000000D+00
   176  1.7500000000000D+00  0.0000000000000D+00  0.0000000000000D+00
   177  1.7600000000000D+00  0.0000000000000D+00  0.0000000000000D+00
   178  1.7700000000000D+00  0.0000000000000D+00  0.0000000000000D+00
   179  1.7800000000000D+00  0.0000000000000D+00  0.0000000000000D+00
   180  1.7900000000000D+00  0.0000000000000D+00  0.0000000000000D+00
   181  1.8000000000000D+00  0.0000000000000D+00  0.0000000000000D+00
   182  1.8100000000000D+00  0.0000000000000D+00  0.0000000000000D+00
   183  1.8200000000000D+00  0.0000000000000D+00  0.0000000000000D+00
   184  1.8300000000000D+00  0.0000000000000D+00  0.0000000000000D+00
   185  1.8400000000000D+00  0.0000000000000D+00  0.0000000000000D+00
   186  1.8500000000000D+00  0.0000000000000D+00  0.0000000000000D+00
   187  1.8600000000000D+00  0.0000000000000D+00  0.0000000000000D+00
   188  1.8700000000000D+00  0.0000000000000D+00  0.0000000000000D+00
   189  1.8800000000000D+00  0.0000000000000D+00  0.0000000000000D+00
   190  1.8900000000000D+00  0.0000000000000D+00  0.0000000000000D+00
   191  1.9000000000000D+00  0.0000000000000D+00  0.0000000000000D+00
   192  1.9100000000000D+00  0.0000000000000D+00  0.0000000000000D+00
   193  1.9200000000000D+00  0.0000000000000D+00  0.0000000000000D+00
   194  1.9300000000000D+00  0.0000000000000D+00  0.0000000000000D+00
   195  1.9400000000000D+00  0.0000000000000D+00  0.0000000000000D+00
   196  1.9500000000000D+00  0.0000000000000D+00  0.0000000000000D+00
   197  1.9600000000000D+00  0.0000000000000D+00  0.0000000000000D+00
   198  1.9700000000000D+00  0.0000000000000D+00  0.0000000000000D+00
   199  1.9800000000000D+00  0.0000000000000D+00  0.0000000000000D+00
   200  1.9900000000000D+00  0.0000000000000D+00  0.0000000000000D+00
   201  2.0000000000000D+00  0.0000000000000D+00  0.0000000000000D+00
   202  2.0100000000000D+00  0.0000000000000D+00  0.0000000000000D+00
   203  2.0200000000000D+00  0.0000000000000D+00  0.0000000000000D+00
   204  2.0300000000000D+00  0.0000000000000D+00  0.0000000000000D+00
   205  2.0400000000000D+00  0.0000000000000D+00  0.0000000000000D+00
   206  2.0500000000000D+00  0.0000000000000D+00  0.0000000000000D+00
   207  2.0600000000000D+00  0.0000000000000D+00  0.0000000000000D+00
   208  2.0700000000000D+00  0.0000000000000D+00  0.0000000000000D+00
   209  2.0800000000000D+00  0.0000000000000D+00  0.0000000000000D+00
   210  2.0900000000000D+00  0.0000000000000D+00  0.0000000000000D+00
   211  2.1000000000000D+00  0.0000000000000D+00  0.0000000000000D+00
   212  2.1100000000000D+00  0.0000000000000D+00  0.0000000000000D+00
   213  2.1200000000000D+00  0.0000000000000D+00  0.0000000000000D+00
   214  2.1300000000000D+00  0.0000000000000D+00  0.0000000000000D+00
   215  2.1400000000000D+00  0.0000000000000D+00  0.0000000000000D+00
   216  2.1500000000000D+00  0.0000000000000D+00  0.0000000000000D+00
   217  2.1600000000000D+00  0.0000000000000D+00  0.0000000000000D+00
   218  2.1700000000000D+00  0.0000000000000D+00  0.0000000000000D+00
   219  2.1800000000000D+00  0.0000000000000D+00  0.0000000000000D+00
   220  2.1900000000000D+00  0.0000000000000D+00  0.0000000000000D+00
   221  2.2000000000000D+00  0.0000000000000D+00  0.0000000000000D+00
   222  2.2100000000000D+00  0.0000000000000D+00  0.0000000000000D+00
   223  2.2200000000000D+00  0.0000000000000D+00  0.0000000000000D+00
   224  2.2300000000000D+00  0.0000000000000D+00  0.0000000000000D+00
   225  2.2400000000000D+00  0.0000000000000D+00  0.0000000000000D+00
   226  2.2500000000000D+00  0.0000000000000D+00  0.0000000000000D+00
   227  2.2600000000000D+00  0.0000000000000D+00  0.0000000000000D+00
   228  2.2700000000000D+00  0.0000000000000D+00  0.0000000000000D+00
   229  2.2800000000000D+00  0.0000000000000D+00  0.0000000000000D+00
   230  2.2900000000000D+00  0.0000000000000D+00  0.0000000000000D+00
   231  2.3000000000000D+00  0.0000000000000D+00  0.0000000000000D+00
   232  2.3100000000000D+00  0.0000000000000D+00  0.0000000000000D+00
   233  2.3200000000000D+00  0.0000000000000D+00  0.0000000000000D+00
   234  2.3300000000000D+00  0.0000000000000D+00  0.0000000000000D+00
   235  2.3400000000000D+00  0.0000000000000D+00  0.0000000000000D+00
   236  2.3500000000000D+00  0.0000000000000D+00  0.0000000000000D+00
   237  2.3600000000000D+00  0.0000000000000D+00  0.0000000000000D+00
   238  2.3700000000000D+00  0.0000000000000D+00  0.0000000000000D+00
   239  2.3800000000000D+00  0.0000000000000D+00  0.0000000000000D+00
   240  2.3900000000000D+00  0.0000000000000D+00  0.0000000000000D+00
   241  2.4000000000000D+00  0.0000000000000D+00  0.0000000000000D+00
   242  2.4100000000000D+00  0.0000000000000D+00  0.0000000000000D+00
   243  2.4200000000000D+00  0.0000000000000D+00  0.0000000000000D+00
   244  2.4300000000000D+00  0.0000000000000D+00  0.0000000000000D+00
   245  2.4400000000000D+00  0.0000000000000D+00  0.0000000000000D+00
   246  2.4500000000000D+00  0.0000000000000D+00  0.0000000000000D+00
   247  2.4600000000000D+00  0.0000000000000D+00  0.0000000000000D+00
   248  2.4700000000000D+00  0.0000000000000D+00  0.0000000000000D+00
   249  2.4800000000000D+00  0.0000000000000D+00  0.0000000000000D+00
   250  2.4900000000000D+00  0.0000000000000D+00  0.0000000000000D+00
   251  2.5000000000000D+00  0.0000000000000D+00  0.0000000000000D+00
   252  2.5100000000000D+00  0.0000000000000D+00  0.0000000000000D+00
   253  2.5200000000000D+00  0.0000000000000D+00  0.0000000000000D+00
   254  2.5300000000000D+00  0.0000000000000D+00  0.0000000000000D+00
   255  2.5400000000000D+00  0.0000000000000D+00  0.0000000000000D+00
   256  2.5500000000000D+00  0.0000000000000D+00  0.0000000000000D+00
   257  2.5600000000000D+00  0.0000000000000D+00  0.0000000000000D+00
   258  2.5700000000000D+00  0.0000000000000D+00  0.0000000000000D+00
   259  2.5800000000000D+00  0.0000000000000D+00  0.0000000000000D+00
   260  2.5900000000000D+00  0.0000000000000D+00  0.0000000000000D+00
   261  2.6000000000000D+00  0.0000000000000D+00  0.0000000000000D+00
   262  2.6100000000000D+00  0.0000000000000D+00  0.0000000000000D+00
   263  2.6200000000000D+00  0.0000000000000D+00  0.0000000000000D+00
   264  2.6300000000000D+00  0.0000000000000D+00  0.0000000000000D+00
   265  2.6400000000000D+00  0.0000000000000D+00  0.0000000000000D+00
   266  2.6500000000000D+00  0.0000000000000D+00  0.0000000000000D+00
   267  2.6600000000000D+00  0.0000000000000D+00  0.0000000000000D+00
   268  2.6700000000000D+00  0.0000000000000D+00  0.0000000000000D+00
   269  2.6800000000000D+00  0.0000000000000D+00  0.0000000000000D+00
   270  2.6900000000000D+00  0.0000000000000D+00  0.0000000000000D+00
   271  2.7000000000000D+00  0.0000000000000D+00  0.0000000000000D+00
   272  2.7100000000000D+00  0.0000000000000D+00  0.0000000000000D+00
   273  2.7200000000000D+00  0.0000000000000D+00  0.0000000000000D+00
   274  2.7300000000000D+00  0.0000000000000D+00  0.0000000000000D+00
   275  2.7400000000000D+00  0.0000000000000D+00  0.0000000000000D+00
   276  2.7500000000000D+00  0.0000000000000D+00  0.0000000000000D+00
   277  2.7600000000000D+00  0.0000000000000D+00  0.0000000000000D+00
   278  2.7700000000000D+00  0.0000000000000D+00  0.0000000000000D+00
   279  2.7800000000000D+00  0.0000000000000D+00  0.0000000000000D+00
   280  2.7900000000000D+00  0.0000000000000D+00  0.0000000000000D+00
   281  2.8000000000000D+00  0.0000000000000D+00  0.0000000000000D+00
   282  2.8100000000000D+00  0.0000000000000D+00  0.0000000000000D+00
   283  2.8200000000000D+00  0.0000000000000D+00  0.0000000000000D+00
   284  2.8300000000000D+00  0.0000000000000D+00  0.0000000000000D+00
   285  2.8400000000000D+00  0.0000000000000D+00  0.0000000000000D+00
   286  2.8500000000000D+00  0.0000000000000D+00  0.0000000000000D+00
   287  2.8600000000000D+00  0.0000000000000D+00  0.0000000000000D+00
   288  2.8700000000000D+00  0.0000000000000D+00  0.0000000000000D+00
   289  2.8800000000000D+00  0.0000000000000D+00  0.0000000000000D+00
   290  2.8900000000000D+00  0.0000000000000D+00  0.0000000000000D+00
   291  2.9000000000000D+00  0.0000000000000D+00  0.0000000000000D+00
   292  2.9100000000000D+00  0.0000000000000D+00  0.0000000000000D+00
   293  2.9200000000000D+00  0.0000000000000D+00  0.0000000000000D+00
   294  2.9300000000000D+00  0.0000000000000D+00  0.0000000000000D+00
   295  2.9400000000000D+00  0.0000000000000D+00  0.0000000000000D+00
   296  2.9500000000000D+00  0.0000000000000D+00  0.0000000000000D+00
   297  2.9600000000000D+00  0.0000000000000D+00  0.0000000000000D+00
   298  2.9700000000000D+00  0.0000000000000D+00  0.0000000000000D+00
   299  2.9800000000000D+00  0.0000000000000D+00  0.0000000000000D+00
   300  2.9900000000000D+00  0.0000000000000D+00  0.0000000000000D+00
   301  3.0000000000000D+00  0.0000000000000D+00  0.0000000000000D+00
   302  3.0100000000000D+00  0.0000000000000D+00  0.0000000000000D+00
   303  3.0200000000000D+00  0.0000000000000D+00  0.0000000000000D+00
   304  3.0300000000000D+00  0.0000000000000D+00  0.0000000000000D+00
   305  3.0400000000000D+00  0.0000000000000D+00  0.0000000000000D+00
   306  3.0500000000000D+00  0.0000000000000D+00  0.0000000000000D+00
   307  3.0600000000000D+00  0.0000000000000D+00  0.0000000000000D+00
   308  3.0700000000000D+00  0.0000000000000D+00  0.0000000000000D+00
   309  3.0800000000000D+00  0.0000000000000D+00  0.0000000000000D+00
   310  3.0900000000000D+00  0.0000000000000D+00  0.0000000000000D+00
   311  3.1000000000000D+00  0.0000000000000D+00  0.0000000000000D+00
   312  3.1100000000000D+00  0.0000000000000D+00  0.0000000000000D+00
   313  3.1200000000000D+00  0.0000000000000D+00  0.0000000000000D+00
   314  3.1300000000000D+00  0.0000000000000D+00  0.0000000000000D+00
   315  3.1400000000000D+00  0.0000000000000D+00  0.0000000000000D+00
   316  3.1500000000000D+00  0.0000000000000D+00  0.0000000000000D+00
   317  3.1600000000000D+00  0.0000000000000D+00  0.0000000000000D+00
   318  3.1700000000000D+00  0.0000000000000D+00  0.0000000000000D+00
   319  3.1800000000000D+00  0.0000000000000D+00  0.0000000000000D+00
   320  3.1900000000000D+00  0.0000000000000D+00  0.0000000000000D+00
   321  3.2000000000000D+00  0.0000000000000D+00  0.0000000000000D+00
   322  3.2100000000000D+00  0.0000000000000D+00  0.0000000000000D+00
   323  3.2200000000000D+00  0.0000000000000D+00  0.0000000000000D+00
   324  3.2300000000000D+00  0.0000000000000D+00  0.0000000000000D+00
   325  3.2400000000000D+00  0.0000000000000D+00  0.0000000000000D+00
   326  3.2500000000000D+00  0.0000000000000D+00  0.0000000000000D+00
   327  3.2600000000000D+00  0.0000000000000D+00  0.0000000000000D+00
   328  3.2700000000000D+00  0.0000000000000D+00  0.0000000000000D+00
   329  3.2800000000000D+00  0.0000000000000D+00  0.0000000000000D+00
   330  3.2900000000000D+00  0.0000000000000D+00  0.0000000000000D+00
   331  3.3000000000000D+00  0.0000000000000D+00  0.0000000000000D+00
   332  3.3100000000000D+00  0.0000000000000D+00  0.0000000000000D+00
   333  3.3200000000000D+00  0.0000000000000D+00  0.0000000000000D+00
   334  3.3300000000000D+00  0.0000000000000D+00  0.0000000000000D+00
   335  3.3400000000000D+00  0.0000000000000D+00  0.0000000000000D+00
   336  3.3500000000000D+00  0.0000000000000D+00  0.0000000000000D+00
   337  3.3600000000000D+00  0.0000000000000D+00  0.0000000000000D+00
   338  3.3700000000000D+00  0.0000000000000D+00  0.0000000000000D+00
   339  3.3800000000000D+00  0.0000000000000D+00  0.0000000000000D+00
   340  3.3900000000000D+00  0.0000000000000D+00  0.0000000000000D+00
   341  3.4000000000000D+00  0.0000000000000D+00  0.0000000000000D+00
   342  3.4100000000000D+00  0.0000000000000D+00  0.0000000000000D+00
   343  3.4200000000000D+00  0.0000000000000D+00  0.0000000000000D+00
   344  3.4300000000000D+00  0.0000000000000D+00  0.0000000000000D+00
   345  3.4400000000000D+00  0.0000000000000D+00  0.0000000000000D+00
   346  3.4500000000000D+00  0.0000000000000D+00  0.0000000000000D+00
   347  3.4600000000000D+00  0.0000000000000D+00  0.0000000000000D+00
   348  3.4700000000000D+00  0.0000000000000D+00  0.0000000000000D+00
   349  3.4800000000000D+00  0.0000000000000D+00  0.0000000000000D+00
   350  3.4900000000000D+00  0.0000000000000D+00  0.0000000000000D+00
   351  3.5000000000000D+00  0.0000000000000D+00  0.0000000000000D+00
   352  3.5100000000000D+00  0.0000000000000D+00  0.0000000000000D+00
   353  3.5200000000000D+00  0.0000000000000D+00  0.0000000000000D+00
   354  3.5300000000000D+00  0.0000000000000D+00  0.0000000000000D+00
   355  3.5400000000000D+00  0.0000000000000D+00  0.0000000000000D+00
   356  3.5500000000000D+00  0.0000000000000D+00  0.0000000000000D+00
   357  3.5600000000000D+00  0.0000000000000D+00  0.0000000000000D+00
   358  3.5700000000000D+00  0.0000000000000D+00  0.0000000000000D+00
   359  3.5800000000000D+00  0.0000000000000D+00  0.0000000000000D+00
   360  3.5900000000000D+00  0.0000000000000D+00  0.0000000000000D+00
   361  3.6000000000000D+00  0.0000000000000D+00  0.0000000000000D+00
   362  3.6100000000000D+00  0.0000000000000D+00  0.0000000000000D+00
   363  3.6200000000000D+00  0.0000000000000D+00  0.0000000000000D+00
   364  3.6300000000000D+00  0.0000000000000D+00  0.0000000000000D+00
   365  3.6400000000000D+00  0.0000000000000D+00  0.0000000000000D+00
   366  3.6500000000000D+00  0.0000000000000D+00  0.0000000000000D+00
   367  3.6600000000000D+00  0.0000000000000D+00  0.0000000000000D+00
   368  3.6700000000000D+00  0.0000000000000D+00  0.0000000000000D+00
   369  3.6800000000000D+00  0.0000000000000D+00  0.0000000000000D+00
   370  3.6900000000000D+00  0.0000000000000D+00  0.0000000000000D+00
   371  3.7000000000000D+00  0.0000000000000D+00  0.0000000000000D+00
   372  3.7100000000000D+00  0.0000000000000D+00  0.0000000000000D+00
   373  3.7200000000000D+00  0.0000000000000D+00  0.0000000000000D+00
   374  3.7300000000000D+00  0.0000000000000D+00  0.0000000000000D+00
   375  3.7400000000000D+00  0.0000000000000D+00  0.0000000000000D+00
   376  3.7500000000000D+00  0.0000000000000D+00  0.0000000000000D+00
   377  3.7600000000000D+00  0.0000000000000D+00  0.0000000000000D+00
   378  3.7700000000000D+00  0.0000000000000D+00  0.0000000000000D+00
   379  3.7800000000000D+00  0.0000000000000D+00  0.0000000000000D+00
   380  3.7900000000000D+00  0.0000000000000D+00  0.0000000000000D+00
   381  3.8000000000000D+00  0.0000000000000D+00  0.0000000000000D+00
   382  3.8100000000000D+00  0.0000000000000D+00  0.0000000000000D+00
   383  3.8200000000000D+00  0.0000000000000D+00  0.0000000000000D+00
   384  3.8300000000000D+00  0.0000000000000D+00  0.0000000000000D+00
   385  3.8400000000000D+00  0.0000000000000D+00  0.0000000000000D+00
   386  3.8500000000000D+00  0.0000000000000D+00  0.0000000000000D+00
   387  3.8600000000000D+00  0.0000000000000D+00  0.0000000000000D+00
   388  3.8700000000000D+00  0.0000000000000D+00  0.0000000000000D+00
   389  3.8800000000000D+00  0.0000000000000D+00  0.0000000000000D+00
   390  3.8900000000000D+00  0.0000000000000D+00  0.0000000000000D+00
   391  3.9000000000000D+00  0.0000000000000D+00  0.0000000000000D+00
   392  3.9100000000000D+00  0.0000000000000D+00  0.0000000000000D+00
   393  3.9200000000000D+00  0.0000000000000D+00  0.0000000000000D+00
   394  3.9300000000000D+00  0.0000000000000D+00  0.0000000000000D+00
   395  3.9400000000000D+00  0.0000000000000D+00  0.0000000000000D+00
   396  3.9500000000000D+00  0.0000000000000D+00  0.0000000000000D+00
   397  3.9600000000000D+00  0.0000000000000D+00  0.0000000000000D+00
   398  3.9700000000000D+00  0.0000000000000D+00  0.0000000000000D+00
   399  3.9800000000000D+00  0.0000000000000D+00  0.0000000000000D+00
   400  3.9900000000000D+00  0.0000000000000D+00  0.0000000000000D+00
   401  4.0000000000000D+00  0.0000000000000D+00  0.0000000000000D+00
   402  4.0100000000000D+00  0.0000000000000D+00  0.0000000000000D+00
   403  4.0200000000000D+00  0.0000000000000D+00  0.0000000000000D+00
   404  4.0300000000000D+00  0.0000000000000D+00  0.0000000000000D+00
   405  4.0400000000000D+00  0.0000000000000D+00  0.0000000000000D+00
   406  4.0500000000000D+00  0.0000000000000D+00  0.0000000000000D+00
   407  4.0600000000000D+00  0.0000000000000D+00  0.0000000000000D+00
   408  4.0700000000000D+00  0.0000000000000D+00  0.0000000000000D+00
   409  4.0800000000000D+00  0.0000000000000D+00  0.0000000000000D+00
   410  4.0900000000000D+00  0.0000000000000D+00  0.0000000000000D+00
   411  4.1000000000000D+00  0.0000000000000D+00  0.0000000000000D+00
   412  4.1100000000000D+00  0.0000000000000D+00  0.0000000000000D+00
   413  4.1200000000000D+00  0.0000000000000D+00  0.0000000000000D+00
   414  4.1300000000000D+00  0.0000000000000D+00  0.0000000000000D+00
   415  4.1400000000000D+00  0.0000000000000D+00  0.0000000000000D+00
   416  4.1500000000000D+00  0.0000000000000D+00  0.0000000000000D+00
   417  4.1600000000000D+00  0.0000000000000D+00  0.0000000000000D+00
   418  4.1700000000000D+00  0.0000000000000D+00  0.0000000000000D+00
   419  4.1800000000000D+00  0.0000000000000D+00  0.0000000000000D+00
   420  4.1900000000000D+00  0.0000000000000D+00  0.0000000000000D+00
   421  4.2000000000000D+00  0.0000000000000D+00  0.0000000000000D+00
   422  4.2100000000000D+00  0.0000000000000D+00  0.0000000000000D+00