Lu    ONCVPSP-3.3.0  r_core=   1.56315   1.60089   1.60089   2.67377
     71.0000     11.0000      220408    zatom,zion,pspd
     8       2   3     4   600     0    pspcod,pspxc,lmax,lloc,mmax,r2well
  5.99000000  0.00000000  0.00000000    rchrg fchrg qchrg
     2     2     2     2     0    nproj
     1     1           extension_switch
   0                         1.2299425789238D+01  9.5155726873920D-01
     1  0.0000000000000D+00 -3.3535868526613D-10  1.6060786034444D-09
     2  1.0000000000000D-02  5.9169040005877D-02 -3.1352255725494D-02
     3  2.0000000000000D-02  1.1822458107392D-01 -6.2469988297010D-02
     4  3.0000000000000D-02  1.7705370800055D-01 -9.3121153704260D-02
     5  4.0000000000000D-02  2.3554466642763D-01 -1.2307863414043D-01
     6  5.0000000000000D-02  2.9358742679389D-01 -1.5212262130845D-01
     7  6.0000000000000D-02  3.5107422876217D-01 -1.8004290512758D-01
     8  7.0000000000000D-02  4.0790010001320D-01 -2.0664103821652D-01
     9  8.0000000000000D-02  4.6396334363199D-01 -2.3173234813557D-01
    10  9.0000000000000D-02  5.1916598872431D-01 -2.5514777134046D-01
    11  1.0000000000000D-01  5.7341419938243D-01 -2.7673548511040D-01
    12  1.1000000000000D-01  6.2661863766573D-01 -2.9636231633302D-01
    13  1.2000000000000D-01  6.7869477686602D-01 -3.1391490892832D-01
    14  1.3000000000000D-01  7.2956316198106D-01 -3.2930063483409D-01
    15  1.4000000000000D-01  7.7914961501575D-01 -3.4244823681964D-01
    16  1.5000000000000D-01  8.2738538345850D-01 -3.5330819489967D-01
    17  1.6000000000000D-01  8.7420723103237D-01 -3.6185281174237D-01
    18  1.7000000000000D-01  9.1955747058589D-01 -3.6807601615985D-01
    19  1.8000000000000D-01  9.6338393975799D-01 -3.7199288748796D-01
    20  1.9000000000000D-01  1.0056399208150D+00 -3.7363890735951D-01
    21  2.0000000000000D-01  1.0462840068049D+00 -3.7306894900271D-01
    22  2.1000000000000D-01  1.0852799168950D+00 -3.7035601770865D-01
    23  2.2000000000000D-01  1.1225962644476D+00 -3.6558975946348D-01
    24  2.3000000000000D-01  1.1582062820255D+00 -3.5887475788811D-01
    25  2.4000000000000D-01  1.1920875081141D+00 -3.5032864253026D-01
    26  2.5000000000000D-01  1.2242214408683D+00 -3.4008003417217D-01
    27  2.6000000000000D-01  1.2545931646551D+00 -3.2826635511723D-01
    28  2.7000000000000D-01  1.2831909555464D+00 -3.1503153436808D-01
    29  2.8000000000000D-01  1.3100058722201D+00 -3.0052363918256D-01
    30  2.9000000000000D-01  1.3350313389446D+00 -2.8489246566568D-01
    31  3.0000000000000D-01  1.3582627274560D+00 -2.6828712181308D-01
    32  3.1000000000000D-01  1.3796969445706D+00 -2.5085363674546D-01
    33  3.2000000000000D-01  1.3993320323270D+00 -2.3273262976265D-01
    34  3.3000000000000D-01  1.4171667873018D+00 -2.1405707229331D-01
    35  3.4000000000000D-01  1.4332004055079D+00 -1.9495017482891D-01
    36  3.5000000000000D-01  1.4474321589543D+00 -1.7552342951492D-01
    37  3.6000000000000D-01  1.4598611095359D+00 -1.5587483724388D-01
    38  3.7000000000000D-01  1.4704858654228D+00 -1.3608734587311D-01
    39  3.8000000000000D-01  1.4793043845508D+00 -1.1622752359923D-01
    40  3.9000000000000D-01  1.4863138291706D+00 -9.6344488591894D-02
    41  4.0000000000000D-01  1.4915104747119D+00 -7.6469112753916D-02
    42  4.1000000000000D-01  1.4948896754612D+00 -5.6613513973169D-02
    43  4.2000000000000D-01  1.4964458887508D+00 -3.6770847504377D-02
    44  4.3000000000000D-01  1.4961727585193D+00 -1.6915403212015D-02
    45  4.4000000000000D-01  1.4940632582459D+00  2.9969886334154D-03
    46  4.5000000000000D-01  1.4901098923847D+00  2.3028244434864D-02
    47  4.6000000000000D-01  1.4843049545508D+00  4.3257012804011D-02
    48  4.7000000000000D-01  1.4766408398424D+00  6.3777368262046D-02
    49  4.8000000000000D-01  1.4671104078374D+00  8.4697226870367D-02
    50  4.9000000000000D-01  1.4557073919870D+00  1.0613650148137D-01
    51  5.0000000000000D-01  1.4424268503594D+00  1.2822501804968D-01
    52  5.1000000000000D-01  1.4272656519646D+00  1.5110021796094D-01
    53  5.2000000000000D-01  1.4102229922398D+00  1.7490467458005D-01
    54  5.3000000000000D-01  1.3913009306903D+00  1.9978345514325D-01
    55  5.4000000000000D-01  1.3705049431813D+00  2.2588136167588D-01
    56  5.5000000000000D-01  1.3478444809639D+00  2.5334008678229D-01
    57  5.6000000000000D-01  1.3233335282041D+00  2.8229532188040D-01
    58  5.7000000000000D-01  1.2969911495684D+00  3.1287385672537D-01
    59  5.8000000000000D-01  1.2688420193146D+00  3.4519070985485D-01
    60  5.9000000000000D-01  1.2389169233345D+00  3.7934632987969D-01
    61  6.0000000000000D-01  1.2072532257098D+00  4.1542390732618D-01
    62  6.1000000000000D-01  1.1738952915671D+00  4.5348683600912D-01
    63  6.2000000000000D-01  1.1388948583496D+00  4.9357636167451D-01
    64  6.3000000000000D-01  1.1023113480692D+00  5.3570945391019D-01
    65  6.4000000000000D-01  1.0642121136465D+00  5.7987693510366D-01
    66  6.5000000000000D-01  1.0246726130955D+00  6.2604189752641D-01
    67  6.6000000000000D-01  9.8377650604665D-01  6.7413843650563D-01
    68  6.7000000000000D-01  9.4161566792814D-01  7.2407072411474D-01
    69  6.8000000000000D-01  8.9829011802459D-01  7.7571244391232D-01
    70  6.9000000000000D-01  8.5390785860249D-01  8.2890660304374D-01
    71  7.0000000000000D-01  8.0858462330859D-01  8.8346573354880D-01
    72  7.1000000000000D-01  7.6244353412009D-01  9.3917248998740D-01
    73  7.2000000000000D-01  7.1561466721852D-01  9.9578064564014D-01
    74  7.3000000000000D-01  6.6823452927562D-01  1.0530164845625D+00
    75  7.4000000000000D-01  6.2044544676064D-01  1.1105805817436D+00
    76  7.5000000000000D-01  5.7239487198386D-01  1.1681499586428D+00
    77  7.6000000000000D-01  5.2423461068503D-01  1.2253805964258D+00
    78  7.7000000000000D-01  4.7611997702016D-01  1.2819102844718D+00
    79  7.8000000000000D-01  4.2820888280136D-01  1.3373617771424D+00
    80  7.9000000000000D-01  3.8066086878005D-01  1.3913462275009D+00
    81  8.0000000000000D-01  3.3363608662268D-01  1.4434668626903D+00
    82  8.1000000000000D-01  2.8729424100009D-01  1.4933228620720D+00
    83  8.2000000000000D-01  2.4179350188350D-01  1.5405133960510D+00
    84  8.3000000000000D-01  1.9728939770435D-01  1.5846417808102D+00
    85  8.4000000000000D-01  1.5393370048187D-01  1.6253197019794D+00
    86  8.5000000000000D-01  1.1187331434393D-01  1.6621714586238D+00
    87  8.6000000000000D-01  7.1249179059191D-02  1.6948381778629D+00
    88  8.7000000000000D-01  3.2195200255486D-02  1.7229819499538D+00
    89  8.8000000000000D-01 -5.1627820803806D-03  1.7462898338070D+00
    90  8.9000000000000D-01 -4.0707975444494D-02  1.7644776836509D+00
    91  9.0000000000000D-01 -7.4333555978100D-02  1.7772937489218D+00
    92  9.1000000000000D-01 -1.0594351842011D-01  1.7845220014245D+00
    93  9.2000000000000D-01 -1.3545344494178D-01  1.7859851463637D+00
    94  9.3000000000000D-01 -1.6279118370284D-01  1.7815472769645D+00
    95  9.4000000000000D-01 -1.8789742883416D-01  1.7711161360545D+00
    96  9.5000000000000D-01 -2.1072619452653D-01  1.7546449521236D+00
    97  9.6000000000000D-01 -2.3124517697843D-01  1.7321338219738D+00
    98  9.7000000000000D-01 -2.4943599911623D-01  1.7036306170623D+00
    99  9.8000000000000D-01 -2.6529433423051D-01  1.6692313959556D+00
   100  9.9000000000000D-01 -2.7882990599356D-01  1.6290803110413D+00
   101  1.0000000000000D+00 -2.9006636359688D-01  1.5833690031781D+00
   102  1.0100000000000D+00 -2.9904103220148D-01  1.5323354843027D+00
   103  1.0200000000000D+00 -3.0580454021667D-01  1.4762625137898D+00
   104  1.0300000000000D+00 -3.1042032632520D-01  1.4154754804931D+00
   105  1.0400000000000D+00 -3.1296403052225D-01  1.3503398083164D+00
   106  1.0500000000000D+00 -3.1352277480111D-01  1.2812579091514D+00
   107  1.0600000000000D+00 -3.1219434028566D-01  1.2086657121529D+00
   108  1.0700000000000D+00 -3.0908624893834D-01  1.1330288041672D+00
   109  1.0800000000000D+00 -3.0431475901226D-01  1.0548382207117D+00
   110  1.0900000000000D+00 -2.9800378444972D-01  9.7460593146465D-01
   111  1.1000000000000D+00 -2.9028374937927D-01  8.9286006841280D-01
   112  1.1100000000000D+00 -2.8129038953193D-01  8.1013994776277D-01
   113  1.1200000000000D+00 -2.7116351321629D-01  7.2699094034144D-01
   114  1.1300000000000D+00 -2.6004573487436D-01  6.4395924690299D-01
   115  1.1400000000000D+00 -2.4808119463572D-01  5.6158663651421D-01
   116  1.1500000000000D+00 -2.3541427747849D-01  4.8040520703524D-01
   117  1.1600000000000D+00 -2.2218834568902D-01  4.0093222708464D-01
   118  1.1700000000000D+00 -2.0854449816001D-01  3.2366511820600D-01
   119  1.1800000000000D+00 -1.9462036967935D-01  2.4907663423438D-01
   120  1.1900000000000D+00 -1.8054898321361D-01  1.7761029420558D-01
   121  1.2000000000000D+00 -1.6645766728641D-01  1.0967612114233D-01
   122  1.2100000000000D+00 -1.5246704986998D-01  4.5646736024629D-02
   123  1.2200000000000D+00 -1.3869013947421D-01 -1.4146147007378D-02
   124  1.2300000000000D+00 -1.2523150307863D-01 -6.9414782782016D-02
   125  1.2400000000000D+00 -1.1218654912328D-01 -1.1991797947008D-01
   126  1.2500000000000D+00 -9.9640922740413D-02 -1.6546317471467D-01
   127  1.2600000000000D+00 -8.7670019496366D-02 -2.0590797707983D-01
   128  1.2700000000000D+00 -7.6338621539765D-02 -2.4116115693023D-01
   129  1.2800000000000D+00 -6.5700659132691D-02 -2.7118307494159D-01
   130  1.2900000000000D+00 -5.5799099703758D-02 -2.9598554016471D-01
   131  1.3000000000000D+00 -4.6665963398640D-02 -3.1563110362854D-01
   132  1.3100000000000D+00 -3.8322463771084D-02 -3.3023179494335D-01
   133  1.3200000000000D+00 -3.0779271075031D-02 -3.3994731462403D-01
   134  1.3300000000000D+00 -2.4036892278065D-02 -3.4498270969424D-01
   135  1.3400000000000D+00 -1.8086162503413D-02 -3.4558555751968D-01
   136  1.3500000000000D+00 -1.2908840416276D-02 -3.4204269256223D-01
   137  1.3600000000000D+00 -8.4782976894778D-03 -3.3467652129563D-01
   138  1.3700000000000D+00 -4.7602939316695D-03 -3.2384096499399D-01
   139  1.3800000000000D+00 -1.7138248843712D-03 -3.0991708596703D-01
   140  1.3900000000000D+00  7.0796807445078D-04 -2.9330845174209D-01
   141  1.4000000000000D+00  2.5568392765357D-03 -2.7443629261078D-01
   142  1.4100000000000D+00  3.8884456615681D-03 -2.5373451911890D-01
   143  1.4200000000000D+00  4.7613322759659D-03 -2.3164465880388D-01
   144  1.4300000000000D+00  5.2359115472370D-03 -2.0861078085242D-01
   145  1.4400000000000D+00  5.3734502455681D-03 -1.8507447159192D-01
   146  1.4500000000000D+00  5.2350794411135D-03 -1.6146993013020D-01
   147  1.4600000000000D+00  4.8808481543420D-03 -1.3821928054150D-01
   148  1.4700000000000D+00  4.3687903597144D-03 -1.1572794462062D-01
   149  1.4800000000000D+00  3.7541009547930D-03 -9.4380539065185D-02
   150  1.4900000000000D+00  3.0885118963748D-03 -7.4537760195084D-02
   151  1.5000000000000D+00  2.4196834844901D-03 -5.6533269683470D-02
   152  1.5100000000000D+00  1.7885279948961D-03 -4.0662917900736D-02
   153  1.5200000000000D+00  1.2316348327530D-03 -2.7192306459258D-02
   154  1.5300000000000D+00  7.8294880890470D-04 -1.6322151831520D-02
   155  1.5400000000000D+00  4.5892650267788D-04 -8.2639287938043D-03
   156  1.5500000000000D+00  2.5443815566323D-04 -3.2041641766492D-03
   157  1.5600000000000D+00  1.3705816302758D-04 -7.4414854684599D-04
   158  1.5700000000000D+00  5.8350900059758D-05  3.2070652877718D-05
   159  1.5800000000000D+00  6.2751075159385D-06  2.7955706831414D-05
   160  1.5900000000000D+00 -7.7206930573713D-06 -4.3603631908772D-05
   161  1.6000000000000D+00 -8.2936595260841D-07 -6.0638303344586D-06
   162  1.6100000000000D+00  1.9661206679392D-06  5.9171653762152D-06
   163  1.6200000000000D+00  2.8304368107724D-08  9.9699591942115D-08
   164  1.6300000000000D+00 -3.1179146533882D-07  1.0329194759777D-06
   165  1.6400000000000D+00  0.0000000000000D+00  0.0000000000000D+00
   166  1.6500000000000D+00  0.0000000000000D+00  0.0000000000000D+00
   167  1.6600000000000D+00  0.0000000000000D+00  0.0000000000000D+00
   168  1.6700000000000D+00  0.0000000000000D+00  0.0000000000000D+00
   169  1.6800000000000D+00  0.0000000000000D+00  0.0000000000000D+00
   170  1.6900000000000D+00  0.0000000000000D+00  0.0000000000000D+00
   171  1.7000000000000D+00  0.0000000000000D+00  0.0000000000000D+00
   172  1.7100000000000D+00  0.0000000000000D+00  0.0000000000000D+00
   173  1.7200000000000D+00  0.0000000000000D+00  0.0000000000000D+00
   174  1.7300000000000D+00  0.0000000000000D+00  0.0000000000000D+00
   175  1.7400000000000D+00  0.0000000000000D+00  0.0000000000000D+00
   176  1.7500000000000D+00  0.0000000000000D+00  0.0000000000000D+00
   177  1.7600000000000D+00  0.0000000000000D+00  0.0000000000000D+00
   178  1.7700000000000D+00  0.0000000000000D+00  0.0000000000000D+00
   179  1.7800000000000D+00  0.0000000000000D+00  0.0000000000000D+00
   180  1.7900000000000D+00  0.0000000000000D+00  0.0000000000000D+00
   181  1.8000000000000D+00  0.0000000000000D+00  0.0000000000000D+00
   182  1.8100000000000D+00  0.0000000000000D+00  0.0000000000000D+00
   183  1.8200000000000D+00  0.0000000000000D+00  0.0000000000000D+00
   184  1.8300000000000D+00  0.0000000000000D+00  0.0000000000000D+00
   185  1.8400000000000D+00  0.0000000000000D+00  0.0000000000000D+00
   186  1.8500000000000D+00  0.0000000000000D+00  0.0000000000000D+00
   187  1.8600000000000D+00  0.0000000000000D+00  0.0000000000000D+00
   188  1.8700000000000D+00  0.0000000000000D+00  0.0000000000000D+00
   189  1.8800000000000D+00  0.0000000000000D+00  0.0000000000000D+00
   190  1.8900000000000D+00  0.0000000000000D+00  0.0000000000000D+00
   191  1.9000000000000D+00  0.0000000000000D+00  0.0000000000000D+00
   192  1.9100000000000D+00  0.0000000000000D+00  0.0000000000000D+00
   193  1.9200000000000D+00  0.0000000000000D+00  0.0000000000000D+00
   194  1.9300000000000D+00  0.0000000000000D+00  0.0000000000000D+00
   195  1.9400000000000D+00  0.0000000000000D+00  0.0000000000000D+00
   196  1.9500000000000D+00  0.0000000000000D+00  0.0000000000000D+00
   197  1.9600000000000D+00  0.0000000000000D+00  0.0000000000000D+00
   198  1.9700000000000D+00  0.0000000000000D+00  0.0000000000000D+00
   199  1.9800000000000D+00  0.0000000000000D+00  0.0000000000000D+00
   200  1.9900000000000D+00  0.0000000000000D+00  0.0000000000000D+00
   201  2.0000000000000D+00  0.0000000000000D+00  0.0000000000000D+00
   202  2.0100000000000D+00  0.0000000000000D+00  0.0000000000000D+00
   203  2.0200000000000D+00  0.0000000000000D+00  0.0000000000000D+00
   204  2.0300000000000D+00  0.0000000000000D+00  0.0000000000000D+00
   205  2.0400000000000D+00  0.0000000000000D+00  0.0000000000000D+00
   206  2.0500000000000D+00  0.0000000000000D+00  0.0000000000000D+00
   207  2.0600000000000D+00  0.0000000000000D+00  0.0000000000000D+00
   208  2.0700000000000D+00  0.0000000000000D+00  0.0000000000000D+00
   209  2.0800000000000D+00  0.0000000000000D+00  0.0000000000000D+00
   210  2.0900000000000D+00  0.0000000000000D+00  0.0000000000000D+00
   211  2.1000000000000D+00  0.0000000000000D+00  0.0000000000000D+00
   212  2.1100000000000D+00  0.0000000000000D+00  0.0000000000000D+00
   213  2.1200000000000D+00  0.0000000000000D+00  0.0000000000000D+00
   214  2.1300000000000D+00  0.0000000000000D+00  0.0000000000000D+00
   215  2.1400000000000D+00  0.0000000000000D+00  0.0000000000000D+00
   216  2.1500000000000D+00  0.0000000000000D+00  0.0000000000000D+00
   217  2.1600000000000D+00  0.0000000000000D+00  0.0000000000000D+00
   218  2.1700000000000D+00  0.0000000000000D+00  0.0000000000000D+00
   219  2.1800000000000D+00  0.0000000000000D+00  0.0000000000000D+00
   220  2.1900000000000D+00  0.0000000000000D+00  0.0000000000000D+00
   221  2.2000000000000D+00  0.0000000000000D+00  0.0000000000000D+00
   222  2.2100000000000D+00  0.0000000000000D+00  0.0000000000000D+00
   223  2.2200000000000D+00  0.0000000000000D+00  0.0000000000000D+00
   224  2.2300000000000D+00  0.0000000000000D+00  0.0000000000000D+00
   225  2.2400000000000D+00  0.0000000000000D+00  0.0000000000000D+00
   226  2.2500000000000D+00  0.0000000000000D+00  0.0000000000000D+00
   227  2.2600000000000D+00  0.0000000000000D+00  0.0000000000000D+00
   228  2.2700000000000D+00  0.0000000000000D+00  0.0000000000000D+00
   229  2.2800000000000D+00  0.0000000000000D+00  0.0000000000000D+00
   230  2.2900000000000D+00  0.0000000000000D+00  0.0000000000000D+00
   231  2.3000000000000D+00  0.0000000000000D+00  0.0000000000000D+00
   232  2.3100000000000D+00  0.0000000000000D+00  0.0000000000000D+00
   233  2.3200000000000D+00  0.0000000000000D+00  0.0000000000000D+00
   234  2.3300000000000D+00  0.0000000000000D+00  0.0000000000000D+00
   235  2.3400000000000D+00  0.0000000000000D+00  0.0000000000000D+00
   236  2.3500000000000D+00  0.0000000000000D+00  0.0000000000000D+00
   237  2.3600000000000D+00  0.0000000000000D+00  0.0000000000000D+00
   238  2.3700000000000D+00  0.0000000000000D+00  0.0000000000000D+00
   239  2.3800000000000D+00  0.0000000000000D+00  0.0000000000000D+00
   240  2.3900000000000D+00  0.0000000000000D+00  0.0000000000000D+00
   241  2.4000000000000D+00  0.0000000000000D+00  0.0000000000000D+00
   242  2.4100000000000D+00  0.0000000000000D+00  0.0000000000000D+00
   243  2.4200000000000D+00  0.0000000000000D+00  0.0000000000000D+00
   244  2.4300000000000D+00  0.0000000000000D+00  0.0000000000000D+00
   245  2.4400000000000D+00  0.0000000000000D+00  0.0000000000000D+00
   246  2.4500000000000D+00  0.0000000000000D+00  0.0000000000000D+00
   247  2.4600000000000D+00  0.0000000000000D+00  0.0000000000000D+00
   248  2.4700000000000D+00  0.0000000000000D+00  0.0000000000000D+00
   249  2.4800000000000D+00  0.0000000000000D+00  0.0000000000000D+00
   250  2.4900000000000D+00  0.0000000000000D+00  0.0000000000000D+00
   251  2.5000000000000D+00  0.0000000000000D+00  0.0000000000000D+00
   252  2.5100000000000D+00  0.0000000000000D+00  0.0000000000000D+00
   253  2.5200000000000D+00  0.0000000000000D+00  0.0000000000000D+00
   254  2.5300000000000D+00  0.0000000000000D+00  0.0000000000000D+00
   255  2.5400000000000D+00  0.0000000000000D+00  0.0000000000000D+00
   256  2.5500000000000D+00  0.0000000000000D+00  0.0000000000000D+00
   257  2.5600000000000D+00  0.0000000000000D+00  0.0000000000000D+00
   258  2.5700000000000D+00  0.0000000000000D+00  0.0000000000000D+00
   259  2.5800000000000D+00  0.0000000000000D+00  0.0000000000000D+00
   260  2.5900000000000D+00  0.0000000000000D+00  0.0000000000000D+00
   261  2.6000000000000D+00  0.0000000000000D+00  0.0000000000000D+00
   262  2.6100000000000D+00  0.0000000000000D+00  0.0000000000000D+00
   263  2.6200000000000D+00  0.0000000000000D+00  0.0000000000000D+00
   264  2.6300000000000D+00  0.0000000000000D+00  0.0000000000000D+00
   265  2.6400000000000D+00  0.0000000000000D+00  0.0000000000000D+00
   266  2.6500000000000D+00  0.0000000000000D+00  0.0000000000000D+00
   267  2.6600000000000D+00  0.0000000000000D+00  0.0000000000000D+00
   268  2.6700000000000D+00  0.0000000000000D+00  0.0000000000000D+00
   269  2.6800000000000D+00  0.0000000000000D+00  0.0000000000000D+00
   270  2.6900000000000D+00  0.0000000000000D+00  0.0000000000000D+00
   271  2.7000000000000D+00  0.0000000000000D+00  0.0000000000000D+00
   272  2.7100000000000D+00  0.0000000000000D+00  0.0000000000000D+00
   273  2.7200000000000D+00  0.0000000000000D+00  0.0000000000000D+00
   274  2.7300000000000D+00  0.0000000000000D+00  0.0000000000000D+00
   275  2.7400000000000D+00  0.0000000000000D+00  0.0000000000000D+00
   276  2.7500000000000D+00  0.0000000000000D+00  0.0000000000000D+00
   277  2.7600000000000D+00  0.0000000000000D+00  0.0000000000000D+00
   278  2.7700000000000D+00  0.0000000000000D+00  0.0000000000000D+00
   279  2.7800000000000D+00  0.0000000000000D+00  0.0000000000000D+00
   280  2.7900000000000D+00  0.0000000000000D+00  0.0000000000000D+00
   281  2.8000000000000D+00  0.0000000000000D+00  0.0000000000000D+00
   282  2.8100000000000D+00  0.0000000000000D+00  0.0000000000000D+00
   283  2.8200000000000D+00  0.0000000000000D+00  0.0000000000000D+00
   284  2.8300000000000D+00  0.0000000000000D+00  0.0000000000000D+00
   285  2.8400000000000D+00  0.0000000000000D+00  0.0000000000000D+00
   286  2.8500000000000D+00  0.0000000000000D+00  0.0000000000000D+00
   287  2.8600000000000D+00  0.0000000000000D+00  0.0000000000000D+00
   288  2.8700000000000D+00  0.0000000000000D+00  0.0000000000000D+00
   289  2.8800000000000D+00  0.0000000000000D+00  0.0000000000000D+00
   290  2.8900000000000D+00  0.0000000000000D+00  0.0000000000000D+00
   291  2.9000000000000D+00  0.0000000000000D+00  0.0000000000000D+00
   292  2.9100000000000D+00  0.0000000000000D+00  0.0000000000000D+00
   293  2.9200000000000D+00  0.0000000000000D+00  0.0000000000000D+00
   294  2.9300000000000D+00  0.0000000000000D+00  0.0000000000000D+00
   295  2.9400000000000D+00  0.0000000000000D+00  0.0000000000000D+00
   296  2.9500000000000D+00  0.0000000000000D+00  0.0000000000000D+00
   297  2.9600000000000D+00  0.0000000000000D+00  0.0000000000000D+00
   298  2.9700000000000D+00  0.0000000000000D+00  0.0000000000000D+00
   299  2.9800000000000D+00  0.0000000000000D+00  0.0000000000000D+00
   300  2.9900000000000D+00  0.0000000000000D+00  0.0000000000000D+00
   301  3.0000000000000D+00  0.0000000000000D+00  0.0000000000000D+00
   302  3.0100000000000D+00  0.0000000000000D+00  0.0000000000000D+00
   303  3.0200000000000D+00  0.0000000000000D+00  0.0000000000000D+00
   304  3.0300000000000D+00  0.0000000000000D+00  0.0000000000000D+00
   305  3.0400000000000D+00  0.0000000000000D+00  0.0000000000000D+00
   306  3.0500000000000D+00  0.0000000000000D+00  0.0000000000000D+00
   307  3.0600000000000D+00  0.0000000000000D+00  0.0000000000000D+00
   308  3.0700000000000D+00  0.0000000000000D+00  0.0000000000000D+00
   309  3.0800000000000D+00  0.0000000000000D+00  0.0000000000000D+00
   310  3.0900000000000D+00  0.0000000000000D+00  0.0000000000000D+00
   311  3.1000000000000D+00  0.0000000000000D+00  0.0000000000000D+00
   312  3.1100000000000D+00  0.0000000000000D+00  0.0000000000000D+00
   313  3.1200000000000D+00  0.0000000000000D+00  0.0000000000000D+00
   314  3.1300000000000D+00  0.0000000000000D+00  0.0000000000000D+00
   315  3.1400000000000D+00  0.0000000000000D+00  0.0000000000000D+00
   316  3.1500000000000D+00  0.0000000000000D+00  0.0000000000000D+00
   317  3.1600000000000D+00  0.0000000000000D+00  0.0000000000000D+00
   318  3.1700000000000D+00  0.0000000000000D+00  0.0000000000000D+00
   319  3.1800000000000D+00  0.0000000000000D+00  0.0000000000000D+00
   320  3.1900000000000D+00  0.0000000000000D+00  0.0000000000000D+00
   321  3.2000000000000D+00  0.0000000000000D+00  0.0000000000000D+00
   322  3.2100000000000D+00  0.0000000000000D+00  0.0000000000000D+00
   323  3.2200000000000D+00  0.0000000000000D+00  0.0000000000000D+00
   324  3.2300000000000D+00  0.0000000000000D+00  0.0000000000000D+00
   325  3.2400000000000D+00  0.0000000000000D+00  0.0000000000000D+00
   326  3.2500000000000D+00  0.0000000000000D+00  0.0000000000000D+00
   327  3.2600000000000D+00  0.0000000000000D+00  0.0000000000000D+00
   328  3.2700000000000D+00  0.0000000000000D+00  0.0000000000000D+00
   329  3.2800000000000D+00  0.0000000000000D+00  0.0000000000000D+00
   330  3.2900000000000D+00  0.0000000000000D+00  0.0000000000000D+00
   331  3.3000000000000D+00  0.0000000000000D+00  0.0000000000000D+00
   332  3.3100000000000D+00  0.0000000000000D+00  0.0000000000000D+00
   333  3.3200000000000D+00  0.0000000000000D+00  0.0000000000000D+00
   334  3.3300000000000D+00  0.0000000000000D+00  0.0000000000000D+00
   335  3.3400000000000D+00  0.0000000000000D+00  0.0000000000000D+00
   336  3.3500000000000D+00  0.0000000000000D+00  0.0000000000000D+00
   337  3.3600000000000D+00  0.0000000000000D+00  0.0000000000000D+00
   338  3.3700000000000D+00  0.0000000000000D+00  0.0000000000000D+00
   339  3.3800000000000D+00  0.0000000000000D+00  0.0000000000000D+00
   340  3.3900000000000D+00  0.0000000000000D+00  0.0000000000000D+00
   341  3.4000000000000D+00  0.0000000000000D+00  0.0000000000000D+00
   342  3.4100000000000D+00  0.0000000000000D+00  0.0000000000000D+00
   343  3.4200000000000D+00  0.0000000000000D+00  0.0000000000000D+00
   344  3.4300000000000D+00  0.0000000000000D+00  0.0000000000000D+00
   345  3.4400000000000D+00  0.0000000000000D+00  0.0000000000000D+00
   346  3.4500000000000D+00  0.0000000000000D+00  0.0000000000000D+00
   347  3.4600000000000D+00  0.0000000000000D+00  0.0000000000000D+00
   348  3.4700000000000D+00  0.0000000000000D+00  0.0000000000000D+00
   349  3.4800000000000D+00  0.0000000000000D+00  0.0000000000000D+00
   350  3.4900000000000D+00  0.0000000000000D+00  0.0000000000000D+00
   351  3.5000000000000D+00  0.0000000000000D+00  0.0000000000000D+00
   352  3.5100000000000D+00  0.0000000000000D+00  0.0000000000000D+00
   353  3.5200000000000D+00  0.0000000000000D+00  0.0000000000000D+00
   354  3.5300000000000D+00  0.0000000000000D+00  0.0000000000000D+00
   355  3.5400000000000D+00  0.0000000000000D+00  0.0000000000000D+00
   356  3.5500000000000D+00  0.0000000000000D+00  0.0000000000000D+00
   357  3.5600000000000D+00  0.0000000000000D+00  0.0000000000000D+00
   358  3.5700000000000D+00  0.0000000000000D+00  0.0000000000000D+00
   359  3.5800000000000D+00  0.0000000000000D+00  0.0000000000000D+00
   360  3.5900000000000D+00  0.0000000000000D+00  0.0000000000000D+00
   361  3.6000000000000D+00  0.0000000000000D+00  0.0000000000000D+00
   362  3.6100000000000D+00  0.0000000000000D+00  0.0000000000000D+00
   363  3.6200000000000D+00  0.0000000000000D+00  0.0000000000000D+00
   364  3.6300000000000D+00  0.0000000000000D+00  0.0000000000000D+00
   365  3.6400000000000D+00  0.0000000000000D+00  0.0000000000000D+00
   366  3.6500000000000D+00  0.0000000000000D+00  0.0000000000000D+00
   367  3.6600000000000D+00  0.0000000000000D+00  0.0000000000000D+00
   368  3.6700000000000D+00  0.0000000000000D+00  0.0000000000000D+00
   369  3.6800000000000D+00  0.0000000000000D+00  0.0000000000000D+00
   370  3.6900000000000D+00  0.0000000000000D+00  0.0000000000000D+00
   371  3.7000000000000D+00  0.0000000000000D+00  0.0000000000000D+00
   372  3.7100000000000D+00  0.0000000000000D+00  0.0000000000000D+00
   373  3.7200000000000D+00  0.0000000000000D+00  0.0000000000000D+00
   374  3.7300000000000D+00  0.0000000000000D+00  0.0000000000000D+00
   375  3.7400000000000D+00  0.0000000000000D+00  0.0000000000000D+00
   376  3.7500000000000D+00  0.0000000000000D+00  0.0000000000000D+00
   377  3.7600000000000D+00  0.0000000000000D+00  0.0000000000000D+00
   378  3.7700000000000D+00  0.0000000000000D+00  0.0000000000000D+00
   379  3.7800000000000D+00  0.0000000000000D+00  0.0000000000000D+00
   380  3.7900000000000D+00  0.0000000000000D+00  0.0000000000000D+00
   381  3.8000000000000D+00  0.0000000000000D+00  0.0000000000000D+00
   382  3.8100000000000D+00  0.0000000000000D+00  0.0000000000000D+00
   383  3.8200000000000D+00  0.0000000000000D+00  0.0000000000000D+00
   384  3.8300000000000D+00  0.0000000000000D+00  0.0000000000000D+00
   385  3.8400000000000D+00  0.0000000000000D+00  0.0000000000000D+00
   386  3.8500000000000D+00  0.0000000000000D+00  0.0000000000000D+00
   387  3.8600000000000D+00  0.0000000000000D+00  0.0000000000000D+00
   388  3.8700000000000D+00  0.0000000000000D+00  0.0000000000000D+00
   389  3.8800000000000D+00  0.0000000000000D+00  0.0000000000000D+00
   390  3.8900000000000D+00  0.0000000000000D+00  0.0000000000000D+00
   391  3.9000000000000D+00  0.0000000000000D+00  0.0000000000000D+00
   392  3.9100000000000D+00  0.0000000000000D+00  0.0000000000000D+00
   393  3.9200000000000D+00  0.0000000000000D+00  0.0000000000000D+00
   394  3.9300000000000D+00  0.0000000000000D+00  0.0000000000000D+00
   395  3.9400000000000D+00  0.0000000000000D+00  0.0000000000000D+00
   396  3.9500000000000D+00  0.0000000000000D+00  0.0000000000000D+00
   397  3.9600000000000D+00  0.0000000000000D+00  0.0000000000000D+00
   398  3.9700000000000D+00  0.0000000000000D+00  0.0000000000000D+00
   399  3.9800000000000D+00  0.0000000000000D+00  0.0000000000000D+00
   400  3.9900000000000D+00  0.0000000000000D+00  0.0000000000000D+00
   401  4.0000000000000D+00  0.0000000000000D+00  0.0000000000000D+00
   402  4.0100000000000D+00  0.0000000000000D+00  0.0000000000000D+00
   403  4.0200000000000D+00  0.0000000000000D+00  0.0000000000000D+00
   404  4.0300000000000D+00  0.0000000000000D+00  0.0000000000000D+00
   405  4.0400000000000D+00  0.0000000000000D+00  0.0000000000000D+00
   406  4.0500000000000D+00  0.0000000000000D+00  0.0000000000000D+00
   407  4.0600000000000D+00  0.0000000000000D+00  0.0000000000000D+00
   408  4.0700000000000D+00  0.0000000000000D+00  0.0000000000000D+00
   409  4.0800000000000D+00  0.0000000000000D+00  0.0000000000000D+00
   410  4.0900000000000D+00  0.0000000000000D+00  0.0000000000000D+00
   411  4.1000000000000D+00  0.0000000000000D+00  0.0000000000000D+00
   412  4.1100000000000D+00  0.0000000000000D+00  0.0000000000000D+00
   413  4.1200000000000D+00  0.0000000000000D+00  0.0000000000000D+00
   414  4.1300000000000D+00  0.0000000000000D+00  0.0000000000000D+00
   415  4.1400000000000D+00  0.0000000000000D+00  0.0000000000000D+00
   416  4.1500000000000D+00  0.0000000000000D+00  0.0000000000000D+00
   417  4.1600000000000D+00  0.0000000000000D+00  0.0000000000000D+00
   418  4.1700000000000D+00  0.0000000000000D+00  0.0000000000000D+00
   419  4.1800000000000D+00  0.0000000000000D+00  0.0000000000000D+00
   420  4.1900000000000D+00  0.0000000000000D+00  0.0000000000000D+00
   421  4.2000000000000D+00  0.0000000000000D+00  0.0000000000000D+00
   422  4.2100000000000D+00  0.0000000000000D+00  0.0000000000000D+00