Hf    ONCVPSP-3.3.0  r_core=   1.55994   1.61677   1.40114   1.61677
     72.0000     26.0000      220408    zatom,zion,pspd
     8       2   3     4   600     0    pspcod,pspxc,lmax,lloc,mmax,r2well
  5.99000000  0.00000000  0.00000000    rchrg fchrg qchrg
     2     2     2     2     0    nproj
     1     1           extension_switch
   0                         1.3040779286836D+01  1.4665960541975D+00
     1  0.0000000000000D+00 -1.4808970716373D-10  7.0193098555826D-10
     2  1.0000000000000D-02  4.9665507473953D-02 -2.1768458250807D-02
     3  2.0000000000000D-02  9.9278274035629D-02 -4.3429781829359D-02
     4  3.0000000000000D-02  1.4878567430373D-01 -6.4877791507896D-02
     5  4.0000000000000D-02  1.9813531174282D-01 -8.6008205499751D-02
     6  5.0000000000000D-02  2.4727512758427D-01 -1.0671955474090D-01
     7  6.0000000000000D-02  2.9615350325139D-01 -1.2691405854878D-01
     8  7.0000000000000D-02  3.4471935429985D-01 -1.4649844828432D-01
     9  8.0000000000000D-02  3.9292221403220D-01 -1.6538472734531D-01
    10  9.0000000000000D-02  4.4071230512707D-01 -1.8349085668034D-01
    11  1.0000000000000D-01  4.8804059783568D-01 -2.0074135602395D-01
    12  1.1000000000000D-01  5.3485885353892D-01 -2.1706781220196D-01
    13  1.2000000000000D-01  5.8111965272333D-01 -2.3240928712775D-01
    14  1.3000000000000D-01  6.2677640672131D-01 -2.4671261949077D-01
    15  1.4000000000000D-01  6.7178335286444D-01 -2.5993261560996D-01
    16  1.5000000000000D-01  7.1609553301656D-01 -2.7203212647031D-01
    17  1.6000000000000D-01  7.5966875577882D-01 -2.8298200956000D-01
    18  1.7000000000000D-01  8.0245954298966D-01 -2.9276097576009D-01
    19  1.8000000000000D-01  8.4442506147199D-01 -3.0135532318688D-01
    20  1.9000000000000D-01  8.8552304130446D-01 -3.0875856152843D-01
    21  2.0000000000000D-01  9.2571168220806D-01 -3.1497093203020D-01
    22  2.1000000000000D-01  9.6494954993807D-01 -3.1999882984927D-01
    23  2.2000000000000D-01  1.0031954648515D+00 -3.2385413699154D-01
    24  2.3000000000000D-01  1.0404083850749D+00 -3.2655347545079D-01
    25  2.4000000000000D-01  1.0765472869252D+00 -3.2811739146461D-01
    26  2.5000000000000D-01  1.1115710454280D+00 -3.2856948296970D-01
    27  2.6000000000000D-01  1.1454383179392D+00 -3.2793548336262D-01
    28  2.7000000000000D-01  1.1781074339896D+00 -3.2624231553460D-01
    29  2.8000000000000D-01  1.2095362945511D+00 -3.2351713083757D-01
    30  2.9000000000000D-01  1.2396822839490D+00 -3.1978634814075D-01
    31  3.0000000000000D-01  1.2685021976339D+00 -3.1507470844269D-01
    32  3.1000000000000D-01  1.2959521889537D+00 -3.0940436060547D-01
    33  3.2000000000000D-01  1.3219877379586D+00 -3.0279399366993D-01
    34  3.3000000000000D-01  1.3465636451029D+00 -2.9525803089073D-01
    35  3.4000000000000D-01  1.3696340524965D+00 -2.8680590009733D-01
    36  3.5000000000000D-01  1.3911524950982D+00 -2.7744139424447D-01
    37  3.6000000000000D-01  1.4110719839346D+00 -2.6716213506727D-01
    38  3.7000000000000D-01  1.4293451230805D+00 -2.5595915161159D-01
    39  3.8000000000000D-01  1.4459242617421D+00 -2.4381658407717D-01
    40  3.9000000000000D-01  1.4607616823601D+00 -2.3071152190585D-01
    41  4.0000000000000D-01  1.4738098251885D+00 -2.1661398338167D-01
    42  4.1000000000000D-01  1.4850215493159D+00 -2.0148704220553D-01
    43  4.2000000000000D-01  1.4943504295883D+00 -1.8528710458062D-01
    44  4.3000000000000D-01  1.5017510883650D+00 -1.6796433832154D-01
    45  4.4000000000000D-01  1.5071795605039D+00 -1.4946325340103D-01
    46  4.5000000000000D-01  1.5105936894326D+00 -1.2972343120168D-01
    47  4.6000000000000D-01  1.5119535516256D+00 -1.0868039756889D-01
    48  4.7000000000000D-01  1.5112219062830D+00 -8.6266632597960D-02
    49  4.8000000000000D-01  1.5083646664979D+00 -6.2412707956474D-02
    50  4.9000000000000D-01  1.5033513877192D+00 -3.7048540474266D-02
    51  5.0000000000000D-01  1.4961557688610D+00 -1.0104748754812D-02
    52  5.1000000000000D-01  1.4867561610051D+00  1.8485902297967D-02
    53  5.2000000000000D-01  1.4751360782712D+00  4.8786985857455D-02
    54  5.3000000000000D-01  1.4612847051201D+00  8.0856844819325D-02
    55  5.4000000000000D-01  1.4451973940966D+00  1.1474699042219D-01
    56  5.5000000000000D-01  1.4268761478274D+00  1.5050048867850D-01
    57  5.6000000000000D-01  1.4063300789651D+00  1.8815035633954D-01
    58  5.7000000000000D-01  1.3835758417166D+00  2.2771798874673D-01
    59  5.8000000000000D-01  1.3586380286151D+00  2.6921164228150D-01
    60  5.9000000000000D-01  1.3315495262983D+00  3.1262499419986D-01
    61  6.0000000000000D-01  1.3023518242314D+00  3.5793580241818D-01
    62  6.1000000000000D-01  1.2710952705724D+00  4.0510468730521D-01
    63  6.2000000000000D-01  1.2378392697185D+00  4.5407405671564D-01
    64  6.3000000000000D-01  1.2026524164802D+00  5.0476719439705D-01
    65  6.4000000000000D-01  1.1656125623273D+00  5.5708753049875D-01
    66  6.5000000000000D-01  1.1268068097082D+00  6.1091811123085D-01
    67  6.6000000000000D-01  1.0863314310722D+00  6.6612128278800D-01
    68  6.7000000000000D-01  1.0442917099153D+00  7.2253860245160D-01
    69  6.8000000000000D-01  1.0008017019162D+00  7.7999098737381D-01
    70  6.9000000000000D-01  9.5598391501746D-01  8.3827910893615D-01
    71  7.0000000000000D-01  9.0996890814130D-01  8.9718403778364D-01
    72  7.1000000000000D-01  8.6289480909212D-01  9.5646814170911D-01
    73  7.2000000000000D-01  8.1490675307891D-01  1.0158762355309D+00
    74  7.3000000000000D-01  7.6615624418864D-01  1.0751369789966D+00
    75  7.4000000000000D-01  7.1680044303172D-01  1.1339645156207D+00
    76  7.5000000000000D-01  6.6700138467226D-01  1.1920603422125D+00
    77  7.6000000000000D-01  6.1692513181543D-01  1.2491153957773D+00
    78  7.7000000000000D-01  5.6674086905898D-01  1.3048123414657D+00
    79  7.8000000000000D-01  5.1661994480581D-01  1.3588280423697D+00
    80  7.9000000000000D-01  4.6673486817183D-01  1.4108361892512D+00
    81  8.0000000000000D-01  4.1725826889754D-01  1.4605100657758D+00
    82  8.1000000000000D-01  3.6836182887409D-01  1.5075254225525D+00
    83  8.2000000000000D-01  3.2021519441440D-01  1.5515634312751D+00
    84  8.3000000000000D-01  2.7298487883127D-01  1.5923136885634D+00
    85  8.4000000000000D-01  2.2683316521953D-01  1.6294772377284D+00
    86  8.5000000000000D-01  1.8191701957054D-01  1.6627695756693D+00
    87  8.6000000000000D-01  1.3838702447273D-01  1.6919236114677D+00
    88  8.7000000000000D-01  9.6386343665042D-02  1.7166925429852D+00
    89  8.8000000000000D-01  5.6049727610556D-02  1.7368526179154D+00
    90  8.9000000000000D-01  1.7502570043552D-02  1.7522057462886D+00
    91  9.0000000000000D-01 -1.9139974886693D-02  1.7625819323843D+00
    92  9.1000000000000D-01 -5.3773805689165D-02  1.7678414953489D+00
    93  9.2000000000000D-01 -8.6306608187981D-02  1.7678770495717D+00
    94  9.3000000000000D-01 -1.1665850378134D-01  1.7626152179843D+00
    95  9.4000000000000D-01 -1.4476260407302D-01  1.7520180539232D+00
    96  9.5000000000000D-01 -1.7056546548944D-01  1.7360841499984D+00
    97  9.6000000000000D-01 -1.9402743842002D-01  1.7148494155161D+00
    98  9.7000000000000D-01 -2.1512290641541D-01  1.6883875073674D+00
    99  9.8000000000000D-01 -2.3384041203668D-01  1.6568099028968D+00
   100  9.9000000000000D-01 -2.5018266705296D-01  1.6202656070299D+00
   101  1.0000000000000D+00 -2.6416644585128D-01  1.5789404899359D+00
   102  1.0100000000000D+00 -2.7582236204379D-01  1.5330562553543D+00
   103  1.0200000000000D+00 -2.8519452948965D-01  1.4828690439603D+00
   104  1.0300000000000D+00 -2.9234011009647D-01  1.4286676801002D+00
   105  1.0400000000000D+00 -2.9732875192692D-01  1.3707715742462D+00
   106  1.0500000000000D+00 -3.0024192225805D-01  1.3095282973973D+00
   107  1.0600000000000D+00 -3.0117214136090D-01  1.2453108475305D+00
   108  1.0700000000000D+00 -3.0022212368180D-01  1.1785146313735D+00
   109  1.0800000000000D+00 -2.9750383419464D-01  1.1095541885277D+00
   110  1.0900000000000D+00 -2.9313746845900D-01  1.0388596876192D+00
   111  1.1000000000000D+00 -2.8725036572767D-01  9.6687322693937D-01
   112  1.1100000000000D+00 -2.7997586510252D-01  8.9404497427991D-01
   113  1.1200000000000D+00 -2.7145211525908D-01  8.2082918245270D-01
   114  1.1300000000000D+00 -2.6182084876143D-01  7.4768011866427D-01
   115  1.1400000000000D+00 -2.5122613222516D-01  6.7504794668703D-01
   116  1.1500000000000D+00 -2.3981310375586D-01  6.0337460127462D-01
   117  1.1600000000000D+00 -2.2772670917863D-01  5.3308969451956D-01
   118  1.1700000000000D+00 -2.1511044844132D-01  4.6460649326156D-01
   119  1.1800000000000D+00 -2.0210514331477D-01  3.9831800565935D-01
   120  1.1900000000000D+00 -1.8884773716147D-01  3.3459321369507D-01
   121  1.2000000000000D+00 -1.7547013715517D-01  2.7377348691136D-01
   122  1.2100000000000D+00 -1.6209810856490D-01  2.1616920983288D-01
   123  1.2200000000000D+00 -1.4885022987418D-01  1.6205665243129D-01
   124  1.2300000000000D+00 -1.3583691723526D-01  1.1167511198340D-01
   125  1.2400000000000D+00 -1.2315952513799D-01  6.5224348744608D-02
   126  1.2500000000000D+00 -1.1090952932957D-01  2.2862334800233D-02
   127  1.2600000000000D+00 -9.9167796908241D-02 -1.5296669268077D-02
   128  1.2700000000000D+00 -8.8003949666384D-02 -4.9183687538507D-02
   129  1.2800000000000D+00 -7.7475808941968D-02 -7.8776311371491D-02
   130  1.2900000000000D+00 -6.7629014512168D-02 -1.0409926702736D-01
   131  1.3000000000000D+00 -5.8496544910433D-02 -1.2522553707827D-01
   132  1.3100000000000D+00 -5.0098423048362D-02 -1.4227675673852D-01
   133  1.3200000000000D+00 -4.2442957510621D-02 -1.5541619834402D-01
   134  1.3300000000000D+00 -3.5528156136914D-02 -1.6484155279487D-01
   135  1.3400000000000D+00 -2.9343550747354D-02 -1.7077626131777D-01
   136  1.3500000000000D+00 -2.3870639812142D-02 -1.7346783334912D-01
   137  1.3600000000000D+00 -1.9083555443581D-02 -1.7318523279001D-01
   138  1.3700000000000D+00 -1.4949890323731D-02 -1.7021551609588D-01
   139  1.3800000000000D+00 -1.1431524941628D-02 -1.6486058483546D-01
   140  1.3900000000000D+00 -8.4855135919078D-03 -1.5743371984080D-01
   141  1.4000000000000D+00 -6.0650045084722D-03 -1.4825601097098D-01
   142  1.4100000000000D+00 -4.1201864637862D-03 -1.3765270515894D-01
   143  1.4200000000000D+00 -2.5992504332846D-03 -1.2594951521794D-01
   144  1.4300000000000D+00 -1.4493549788642D-03 -1.1346893059279D-01
   145  1.4400000000000D+00 -6.1758435892686D-04 -1.0052656998949D-01
   146  1.4500000000000D+00 -5.1888185353063D-05 -8.7427616462769D-02
   147  1.4600000000000D+00  2.9800835640494D-04 -7.4463374887496D-02
   148  1.4700000000000D+00  4.7973354495691D-04 -6.1907987483589D-02
   149  1.4800000000000D+00  5.3744895226758D-04 -5.0015349282800D-02
   150  1.4900000000000D+00  5.1115408779281D-04 -3.9016519298397D-02
   151  1.5000000000000D+00  4.3579008709722D-04 -2.9116308666555D-02
   152  1.5100000000000D+00  3.3987487069252D-04 -2.0492030471532D-02
   153  1.5200000000000D+00  2.4870972388886D-04 -1.3289686351257D-02
   154  1.5300000000000D+00  1.8197024937758D-04 -7.6080112426852D-03
   155  1.5400000000000D+00  1.4057680123624D-04 -3.5779021990137D-03
   156  1.5500000000000D+00  1.1293922081800D-04 -1.2393321037512D-03
   157  1.5600000000000D+00  8.1300170743850D-05 -2.1809332027347D-04
   158  1.5700000000000D+00  3.3917426630804D-05  3.6091005339140D-05
   159  1.5800000000000D+00 -2.4932378070376D-06 -5.6165320986094D-06
   160  1.5900000000000D+00 -6.5860260097906D-06 -2.1571414122752D-05
   161  1.6000000000000D+00  8.3126126150911D-07  1.1780964805431D-06
   162  1.6100000000000D+00  1.5152934242648D-06  2.6621385224972D-06
   163  1.6200000000000D+00 -1.2945744999311D-07  3.5170720865575D-07
   164  1.6300000000000D+00 -1.8660875890616D-07  5.0697465235945D-07
   165  1.6400000000000D+00  0.0000000000000D+00  0.0000000000000D+00
   166  1.6500000000000D+00  0.0000000000000D+00  0.0000000000000D+00
   167  1.6600000000000D+00  0.0000000000000D+00  0.0000000000000D+00
   168  1.6700000000000D+00  0.0000000000000D+00  0.0000000000000D+00
   169  1.6800000000000D+00  0.0000000000000D+00  0.0000000000000D+00
   170  1.6900000000000D+00  0.0000000000000D+00  0.0000000000000D+00
   171  1.7000000000000D+00  0.0000000000000D+00  0.0000000000000D+00
   172  1.7100000000000D+00  0.0000000000000D+00  0.0000000000000D+00
   173  1.7200000000000D+00  0.0000000000000D+00  0.0000000000000D+00
   174  1.7300000000000D+00  0.0000000000000D+00  0.0000000000000D+00
   175  1.7400000000000D+00  0.0000000000000D+00  0.0000000000000D+00
   176  1.7500000000000D+00  0.0000000000000D+00  0.0000000000000D+00
   177  1.7600000000000D+00  0.0000000000000D+00  0.0000000000000D+00
   178  1.7700000000000D+00  0.0000000000000D+00  0.0000000000000D+00
   179  1.7800000000000D+00  0.0000000000000D+00  0.0000000000000D+00
   180  1.7900000000000D+00  0.0000000000000D+00  0.0000000000000D+00
   181  1.8000000000000D+00  0.0000000000000D+00  0.0000000000000D+00
   182  1.8100000000000D+00  0.0000000000000D+00  0.0000000000000D+00
   183  1.8200000000000D+00  0.0000000000000D+00  0.0000000000000D+00
   184  1.8300000000000D+00  0.0000000000000D+00  0.0000000000000D+00
   185  1.8400000000000D+00  0.0000000000000D+00  0.0000000000000D+00
   186  1.8500000000000D+00  0.0000000000000D+00  0.0000000000000D+00
   187  1.8600000000000D+00  0.0000000000000D+00  0.0000000000000D+00
   188  1.8700000000000D+00  0.0000000000000D+00  0.0000000000000D+00
   189  1.8800000000000D+00  0.0000000000000D+00  0.0000000000000D+00
   190  1.8900000000000D+00  0.0000000000000D+00  0.0000000000000D+00
   191  1.9000000000000D+00  0.0000000000000D+00  0.0000000000000D+00
   192  1.9100000000000D+00  0.0000000000000D+00  0.0000000000000D+00
   193  1.9200000000000D+00  0.0000000000000D+00  0.0000000000000D+00
   194  1.9300000000000D+00  0.0000000000000D+00  0.0000000000000D+00
   195  1.9400000000000D+00  0.0000000000000D+00  0.0000000000000D+00
   196  1.9500000000000D+00  0.0000000000000D+00  0.0000000000000D+00
   197  1.9600000000000D+00  0.0000000000000D+00  0.0000000000000D+00
   198  1.9700000000000D+00  0.0000000000000D+00  0.0000000000000D+00
   199  1.9800000000000D+00  0.0000000000000D+00  0.0000000000000D+00
   200  1.9900000000000D+00  0.0000000000000D+00  0.0000000000000D+00
   201  2.0000000000000D+00  0.0000000000000D+00  0.0000000000000D+00
   202  2.0100000000000D+00  0.0000000000000D+00  0.0000000000000D+00
   203  2.0200000000000D+00  0.0000000000000D+00  0.0000000000000D+00
   204  2.0300000000000D+00  0.0000000000000D+00  0.0000000000000D+00
   205  2.0400000000000D+00  0.0000000000000D+00  0.0000000000000D+00
   206  2.0500000000000D+00  0.0000000000000D+00  0.0000000000000D+00
   207  2.0600000000000D+00  0.0000000000000D+00  0.0000000000000D+00
   208  2.0700000000000D+00  0.0000000000000D+00  0.0000000000000D+00
   209  2.0800000000000D+00  0.0000000000000D+00  0.0000000000000D+00
   210  2.0900000000000D+00  0.0000000000000D+00  0.0000000000000D+00
   211  2.1000000000000D+00  0.0000000000000D+00  0.0000000000000D+00
   212  2.1100000000000D+00  0.0000000000000D+00  0.0000000000000D+00
   213  2.1200000000000D+00  0.0000000000000D+00  0.0000000000000D+00
   214  2.1300000000000D+00  0.0000000000000D+00  0.0000000000000D+00
   215  2.1400000000000D+00  0.0000000000000D+00  0.0000000000000D+00
   216  2.1500000000000D+00  0.0000000000000D+00  0.0000000000000D+00
   217  2.1600000000000D+00  0.0000000000000D+00  0.0000000000000D+00
   218  2.1700000000000D+00  0.0000000000000D+00  0.0000000000000D+00
   219  2.1800000000000D+00  0.0000000000000D+00  0.0000000000000D+00
   220  2.1900000000000D+00  0.0000000000000D+00  0.0000000000000D+00
   221  2.2000000000000D+00  0.0000000000000D+00  0.0000000000000D+00
   222  2.2100000000000D+00  0.0000000000000D+00  0.0000000000000D+00
   223  2.2200000000000D+00  0.0000000000000D+00  0.0000000000000D+00
   224  2.2300000000000D+00  0.0000000000000D+00  0.0000000000000D+00
   225  2.2400000000000D+00  0.0000000000000D+00  0.0000000000000D+00
   226  2.2500000000000D+00  0.0000000000000D+00  0.0000000000000D+00
   227  2.2600000000000D+00  0.0000000000000D+00  0.0000000000000D+00
   228  2.2700000000000D+00  0.0000000000000D+00  0.0000000000000D+00
   229  2.2800000000000D+00  0.0000000000000D+00  0.0000000000000D+00
   230  2.2900000000000D+00  0.0000000000000D+00  0.0000000000000D+00
   231  2.3000000000000D+00  0.0000000000000D+00  0.0000000000000D+00
   232  2.3100000000000D+00  0.0000000000000D+00  0.0000000000000D+00
   233  2.3200000000000D+00  0.0000000000000D+00  0.0000000000000D+00
   234  2.3300000000000D+00  0.0000000000000D+00  0.0000000000000D+00
   235  2.3400000000000D+00  0.0000000000000D+00  0.0000000000000D+00
   236  2.3500000000000D+00  0.0000000000000D+00  0.0000000000000D+00
   237  2.3600000000000D+00  0.0000000000000D+00  0.0000000000000D+00
   238  2.3700000000000D+00  0.0000000000000D+00  0.0000000000000D+00
   239  2.3800000000000D+00  0.0000000000000D+00  0.0000000000000D+00
   240  2.3900000000000D+00  0.0000000000000D+00  0.0000000000000D+00
   241  2.4000000000000D+00  0.0000000000000D+00  0.0000000000000D+00
   242  2.4100000000000D+00  0.0000000000000D+00  0.0000000000000D+00
   243  2.4200000000000D+00  0.0000000000000D+00  0.0000000000000D+00
   244  2.4300000000000D+00  0.0000000000000D+00  0.0000000000000D+00
   245  2.4400000000000D+00  0.0000000000000D+00  0.0000000000000D+00
   246  2.4500000000000D+00  0.0000000000000D+00  0.0000000000000D+00
   247  2.4600000000000D+00  0.0000000000000D+00  0.0000000000000D+00
   248  2.4700000000000D+00  0.0000000000000D+00  0.0000000000000D+00
   249  2.4800000000000D+00  0.0000000000000D+00  0.0000000000000D+00
   250  2.4900000000000D+00  0.0000000000000D+00  0.0000000000000D+00
   251  2.5000000000000D+00  0.0000000000000D+00  0.0000000000000D+00
   252  2.5100000000000D+00  0.0000000000000D+00  0.0000000000000D+00
   253  2.5200000000000D+00  0.0000000000000D+00  0.0000000000000D+00
   254  2.5300000000000D+00  0.0000000000000D+00  0.0000000000000D+00
   255  2.5400000000000D+00  0.0000000000000D+00  0.0000000000000D+00
   256  2.5500000000000D+00  0.0000000000000D+00  0.0000000000000D+00
   257  2.5600000000000D+00  0.0000000000000D+00  0.0000000000000D+00
   258  2.5700000000000D+00  0.0000000000000D+00  0.0000000000000D+00
   259  2.5800000000000D+00  0.0000000000000D+00  0.0000000000000D+00
   260  2.5900000000000D+00  0.0000000000000D+00  0.0000000000000D+00
   261  2.6000000000000D+00  0.0000000000000D+00  0.0000000000000D+00
   262  2.6100000000000D+00  0.0000000000000D+00  0.0000000000000D+00
   263  2.6200000000000D+00  0.0000000000000D+00  0.0000000000000D+00
   264  2.6300000000000D+00  0.0000000000000D+00  0.0000000000000D+00
   265  2.6400000000000D+00  0.0000000000000D+00  0.0000000000000D+00
   266  2.6500000000000D+00  0.0000000000000D+00  0.0000000000000D+00
   267  2.6600000000000D+00  0.0000000000000D+00  0.0000000000000D+00
   268  2.6700000000000D+00  0.0000000000000D+00  0.0000000000000D+00
   269  2.6800000000000D+00  0.0000000000000D+00  0.0000000000000D+00
   270  2.6900000000000D+00  0.0000000000000D+00  0.0000000000000D+00
   271  2.7000000000000D+00  0.0000000000000D+00  0.0000000000000D+00
   272  2.7100000000000D+00  0.0000000000000D+00  0.0000000000000D+00
   273  2.7200000000000D+00  0.0000000000000D+00  0.0000000000000D+00
   274  2.7300000000000D+00  0.0000000000000D+00  0.0000000000000D+00
   275  2.7400000000000D+00  0.0000000000000D+00  0.0000000000000D+00
   276  2.7500000000000D+00  0.0000000000000D+00  0.0000000000000D+00
   277  2.7600000000000D+00  0.0000000000000D+00  0.0000000000000D+00
   278  2.7700000000000D+00  0.0000000000000D+00  0.0000000000000D+00
   279  2.7800000000000D+00  0.0000000000000D+00  0.0000000000000D+00
   280  2.7900000000000D+00  0.0000000000000D+00  0.0000000000000D+00
   281  2.8000000000000D+00  0.0000000000000D+00  0.0000000000000D+00
   282  2.8100000000000D+00  0.0000000000000D+00  0.0000000000000D+00
   283  2.8200000000000D+00  0.0000000000000D+00  0.0000000000000D+00
   284  2.8300000000000D+00  0.0000000000000D+00  0.0000000000000D+00
   285  2.8400000000000D+00  0.0000000000000D+00  0.0000000000000D+00
   286  2.8500000000000D+00  0.0000000000000D+00  0.0000000000000D+00
   287  2.8600000000000D+00  0.0000000000000D+00  0.0000000000000D+00
   288  2.8700000000000D+00  0.0000000000000D+00  0.0000000000000D+00
   289  2.8800000000000D+00  0.0000000000000D+00  0.0000000000000D+00
   290  2.8900000000000D+00  0.0000000000000D+00  0.0000000000000D+00
   291  2.9000000000000D+00  0.0000000000000D+00  0.0000000000000D+00
   292  2.9100000000000D+00  0.0000000000000D+00  0.0000000000000D+00
   293  2.9200000000000D+00  0.0000000000000D+00  0.0000000000000D+00
   294  2.9300000000000D+00  0.0000000000000D+00  0.0000000000000D+00
   295  2.9400000000000D+00  0.0000000000000D+00  0.0000000000000D+00
   296  2.9500000000000D+00  0.0000000000000D+00  0.0000000000000D+00
   297  2.9600000000000D+00  0.0000000000000D+00  0.0000000000000D+00
   298  2.9700000000000D+00  0.0000000000000D+00  0.0000000000000D+00
   299  2.9800000000000D+00  0.0000000000000D+00  0.0000000000000D+00
   300  2.9900000000000D+00  0.0000000000000D+00  0.0000000000000D+00
   301  3.0000000000000D+00  0.0000000000000D+00  0.0000000000000D+00
   302  3.0100000000000D+00  0.0000000000000D+00  0.0000000000000D+00
   303  3.0200000000000D+00  0.0000000000000D+00  0.0000000000000D+00
   304  3.0300000000000D+00  0.0000000000000D+00  0.0000000000000D+00
   305  3.0400000000000D+00  0.0000000000000D+00  0.0000000000000D+00
   306  3.0500000000000D+00  0.0000000000000D+00  0.0000000000000D+00
   307  3.0600000000000D+00  0.0000000000000D+00  0.0000000000000D+00
   308  3.0700000000000D+00  0.0000000000000D+00  0.0000000000000D+00
   309  3.0800000000000D+00  0.0000000000000D+00  0.0000000000000D+00
   310  3.0900000000000D+00  0.0000000000000D+00  0.0000000000000D+00
   311  3.1000000000000D+00  0.0000000000000D+00  0.0000000000000D+00
   312  3.1100000000000D+00  0.0000000000000D+00  0.0000000000000D+00
   313  3.1200000000000D+00  0.0000000000000D+00  0.0000000000000D+00
   314  3.1300000000000D+00  0.0000000000000D+00  0.0000000000000D+00
   315  3.1400000000000D+00  0.0000000000000D+00  0.0000000000000D+00
   316  3.1500000000000D+00  0.0000000000000D+00  0.0000000000000D+00
   317  3.1600000000000D+00  0.0000000000000D+00  0.0000000000000D+00
   318  3.1700000000000D+00  0.0000000000000D+00  0.0000000000000D+00
   319  3.1800000000000D+00  0.0000000000000D+00  0.0000000000000D+00
   320  3.1900000000000D+00  0.0000000000000D+00  0.0000000000000D+00
   321  3.2000000000000D+00  0.0000000000000D+00  0.0000000000000D+00
   322  3.2100000000000D+00  0.0000000000000D+00  0.0000000000000D+00
   323  3.2200000000000D+00  0.0000000000000D+00  0.0000000000000D+00
   324  3.2300000000000D+00  0.0000000000000D+00  0.0000000000000D+00
   325  3.2400000000000D+00  0.0000000000000D+00  0.0000000000000D+00
   326  3.2500000000000D+00  0.0000000000000D+00  0.0000000000000D+00
   327  3.2600000000000D+00  0.0000000000000D+00  0.0000000000000D+00
   328  3.2700000000000D+00  0.0000000000000D+00  0.0000000000000D+00
   329  3.2800000000000D+00  0.0000000000000D+00  0.0000000000000D+00
   330  3.2900000000000D+00  0.0000000000000D+00  0.0000000000000D+00
   331  3.3000000000000D+00  0.0000000000000D+00  0.0000000000000D+00
   332  3.3100000000000D+00  0.0000000000000D+00  0.0000000000000D+00
   333  3.3200000000000D+00  0.0000000000000D+00  0.0000000000000D+00
   334  3.3300000000000D+00  0.0000000000000D+00  0.0000000000000D+00
   335  3.3400000000000D+00  0.0000000000000D+00  0.0000000000000D+00
   336  3.3500000000000D+00  0.0000000000000D+00  0.0000000000000D+00
   337  3.3600000000000D+00  0.0000000000000D+00  0.0000000000000D+00
   338  3.3700000000000D+00  0.0000000000000D+00  0.0000000000000D+00
   339  3.3800000000000D+00  0.0000000000000D+00  0.0000000000000D+00
   340  3.3900000000000D+00  0.0000000000000D+00  0.0000000000000D+00
   341  3.4000000000000D+00  0.0000000000000D+00  0.0000000000000D+00
   342  3.4100000000000D+00  0.0000000000000D+00  0.0000000000000D+00
   343  3.4200000000000D+00  0.0000000000000D+00  0.0000000000000D+00
   344  3.4300000000000D+00  0.0000000000000D+00  0.0000000000000D+00
   345  3.4400000000000D+00  0.0000000000000D+00  0.0000000000000D+00
   346  3.4500000000000D+00  0.0000000000000D+00  0.0000000000000D+00
   347  3.4600000000000D+00  0.0000000000000D+00  0.0000000000000D+00
   348  3.4700000000000D+00  0.0000000000000D+00  0.0000000000000D+00
   349  3.4800000000000D+00  0.0000000000000D+00  0.0000000000000D+00
   350  3.4900000000000D+00  0.0000000000000D+00  0.0000000000000D+00
   351  3.5000000000000D+00  0.0000000000000D+00  0.0000000000000D+00
   352  3.5100000000000D+00  0.0000000000000D+00  0.0000000000000D+00
   353  3.5200000000000D+00  0.0000000000000D+00  0.0000000000000D+00
   354  3.5300000000000D+00  0.0000000000000D+00  0.0000000000000D+00
   355  3.5400000000000D+00  0.0000000000000D+00  0.0000000000000D+00
   356  3.5500000000000D+00  0.0000000000000D+00  0.0000000000000D+00
   357  3.5600000000000D+00  0.0000000000000D+00  0.0000000000000D+00
   358  3.5700000000000D+00  0.0000000000000D+00  0.0000000000000D+00
   359  3.5800000000000D+00  0.0000000000000D+00  0.0000000000000D+00
   360  3.5900000000000D+00  0.0000000000000D+00  0.0000000000000D+00
   361  3.6000000000000D+00  0.0000000000000D+00  0.0000000000000D+00
   362  3.6100000000000D+00  0.0000000000000D+00  0.0000000000000D+00
   363  3.6200000000000D+00  0.0000000000000D+00  0.0000000000000D+00
   364  3.6300000000000D+00  0.0000000000000D+00  0.0000000000000D+00
   365  3.6400000000000D+00  0.0000000000000D+00  0.0000000000000D+00
   366  3.6500000000000D+00  0.0000000000000D+00  0.0000000000000D+00
   367  3.6600000000000D+00  0.0000000000000D+00  0.0000000000000D+00
   368  3.6700000000000D+00  0.0000000000000D+00  0.0000000000000D+00
   369  3.6800000000000D+00  0.0000000000000D+00  0.0000000000000D+00
   370  3.6900000000000D+00  0.0000000000000D+00  0.0000000000000D+00
   371  3.7000000000000D+00  0.0000000000000D+00  0.0000000000000D+00
   372  3.7100000000000D+00  0.0000000000000D+00  0.0000000000000D+00
   373  3.7200000000000D+00  0.0000000000000D+00  0.0000000000000D+00
   374  3.7300000000000D+00  0.0000000000000D+00  0.0000000000000D+00
   375  3.7400000000000D+00  0.0000000000000D+00  0.0000000000000D+00
   376  3.7500000000000D+00  0.0000000000000D+00  0.0000000000000D+00
   377  3.7600000000000D+00  0.0000000000000D+00  0.0000000000000D+00
   378  3.7700000000000D+00  0.0000000000000D+00  0.0000000000000D+00
   379  3.7800000000000D+00  0.0000000000000D+00  0.0000000000000D+00
   380  3.7900000000000D+00  0.0000000000000D+00  0.0000000000000D+00
   381  3.8000000000000D+00  0.0000000000000D+00  0.0000000000000D+00
   382  3.8100000000000D+00  0.0000000000000D+00  0.0000000000000D+00
   383  3.8200000000000D+00  0.0000000000000D+00  0.0000000000000D+00
   384  3.8300000000000D+00  0.0000000000000D+00  0.0000000000000D+00
   385  3.8400000000000D+00  0.0000000000000D+00  0.0000000000000D+00
   386  3.8500000000000D+00  0.0000000000000D+00  0.0000000000000D+00
   387  3.8600000000000D+00  0.0000000000000D+00  0.0000000000000D+00
   388  3.8700000000000D+00  0.0000000000000D+00  0.0000000000000D+00
   389  3.8800000000000D+00  0.0000000000000D+00  0.0000000000000D+00
   390  3.8900000000000D+00  0.0000000000000D+00  0.0000000000000D+00
   391  3.9000000000000D+00  0.0000000000000D+00  0.0000000000000D+00
   392  3.9100000000000D+00  0.0000000000000D+00  0.0000000000000D+00
   393  3.9200000000000D+00  0.0000000000000D+00  0.0000000000000D+00
   394  3.9300000000000D+00  0.0000000000000D+00  0.0000000000000D+00
   395  3.9400000000000D+00  0.0000000000000D+00  0.0000000000000D+00
   396  3.9500000000000D+00  0.0000000000000D+00  0.0000000000000D+00
   397  3.9600000000000D+00  0.0000000000000D+00  0.0000000000000D+00
   398  3.9700000000000D+00  0.0000000000000D+00  0.0000000000000D+00
   399  3.9800000000000D+00  0.0000000000000D+00  0.0000000000000D+00
   400  3.9900000000000D+00  0.0000000000000D+00  0.0000000000000D+00
   401  4.0000000000000D+00  0.0000000000000D+00  0.0000000000000D+00
   402  4.0100000000000D+00  0.0000000000000D+00  0.0000000000000D+00
   403  4.0200000000000D+00  0.0000000000000D+00  0.0000000000000D+00
   404  4.0300000000000D+00  0.0000000000000D+00  0.0000000000000D+00
   405  4.0400000000000D+00  0.0000000000000D+00  0.0000000000000D+00
   406  4.0500000000000D+00  0.0000000000000D+00  0.0000000000000D+00
   407  4.0600000000000D+00  0.0000000000000D+00  0.0000000000000D+00
   408  4.0700000000000D+00  0.0000000000000D+00  0.0000000000000D+00
   409  4.0800000000000D+00  0.0000000000000D+00  0.0000000000000D+00
   410  4.0900000000000D+00  0.0000000000000D+00  0.0000000000000D+00
   411  4.1000000000000D+00  0.0000000000000D+00  0.0000000000000D+00
   412  4.1100000000000D+00  0.0000000000000D+00  0.0000000000000D+00
   413  4.1200000000000D+00  0.0000000000000D+00  0.0000000000000D+00
   414  4.1300000000000D+00  0.0000000000000D+00  0.0000000000000D+00
   415  4.1400000000000D+00  0.0000000000000D+00  0.0000000000000D+00
   416  4.1500000000000D+00  0.0000000000000D+00  0.0000000000000D+00
   417  4.1600000000000D+00  0.0000000000000D+00  0.0000000000000D+00
   418  4.1700000000000D+00  0.0000000000000D+00  0.0000000000000D+00
   419  4.1800000000000D+00  0.0000000000000D+00  0.0000000000000D+00
   420  4.1900000000000D+00  0.0000000000000D+00  0.0000000000000D+00
   421  4.2000000000000D+00  0.0000000000000D+00  0.0000000000000D+00
   422  4.2100000000000D+00  0.0000000000000D+00  0.0000000000000D+00