Hf    ONCVPSP-3.3.0  r_core=   1.71613   1.71613   1.71613   2.42541
     72.0000     12.0000      220408    zatom,zion,pspd
     8       2   3     4   600     0    pspcod,pspxc,lmax,lloc,mmax,r2well
  5.99000000  0.00000000  0.00000000    rchrg fchrg qchrg
     2     2     2     2     0    nproj
     1     1           extension_switch
   0                         5.9795221590183D+00 -4.4748720523274D-01
     1  0.0000000000000D+00  3.2842562003310D-11 -1.0657233429079D-09
     2  1.0000000000000D-02  5.2749827605295D-02  5.4674438007303D-02
     3  2.0000000000000D-02  1.0543246302509D-01  1.0903031199890D-01
     4  3.0000000000000D-02  1.5798075857255D-01  1.6275167185790D-01
     5  4.0000000000000D-02  2.1032765620115D-01  2.1552776908035D-01
     6  5.0000000000000D-02  2.6240623392376D-01  2.6705559239333D-01
     7  6.0000000000000D-02  3.1414975412690D-01  3.1704232590976D-01
     8  7.0000000000000D-02  3.6549171437308D-01  3.6520770526185D-01
     9  8.0000000000000D-02  4.1636590125112D-01  4.1128624822053D-01
    10  9.0000000000000D-02  4.6670644779401D-01  4.5502933762017D-01
    11  1.0000000000000D-01  5.1644789493628D-01  4.9620713595127D-01
    12  1.1000000000000D-01  5.6552525742857D-01  5.3461031274397D-01
    13  1.2000000000000D-01  6.1387409456680D-01  5.7005156782371D-01
    14  1.3000000000000D-01  6.6143058602718D-01  6.0236693565637D-01
    15  1.4000000000000D-01  7.0813161302811D-01  6.3141685829253D-01
    16  1.5000000000000D-01  7.5391484496468D-01  6.5708701684518D-01
    17  1.6000000000000D-01  7.9871883158374D-01  6.7928891396621D-01
    18  1.7000000000000D-01  8.4248310068696D-01  6.9796020240016D-01
    19  1.8000000000000D-01  8.8514826126662D-01  7.1306475735935D-01
    20  1.9000000000000D-01  9.2665611189634D-01  7.2459249315688D-01
    21  2.0000000000000D-01  9.6694975411572D-01  7.3255892722407D-01
    22  2.1000000000000D-01  1.0059737104656D+00  7.3700449729865D-01
    23  2.2000000000000D-01  1.0436740467511D+00  7.3799364017177D-01
    24  2.3000000000000D-01  1.0799984980310D+00  7.3561364289782D-01
    25  2.4000000000000D-01  1.1148965977594D+00  7.2997327977573D-01
    26  2.5000000000000D-01  1.1483198094344D+00  7.2120125067594D-01
    27  2.6000000000000D-01  1.1802216600455D+00  7.0944443839321D-01
    28  2.7000000000000D-01  1.2105578745506D+00  6.9486600462478D-01
    29  2.8000000000000D-01  1.2392865105631D+00  6.7764334588975D-01
    30  2.9000000000000D-01  1.2663680923847D+00  6.5796593219643D-01
    31  3.0000000000000D-01  1.2917657434775D+00  6.3603305251704D-01
    32  3.1000000000000D-01  1.3154453164472D+00  6.1205149212498D-01
    33  3.2000000000000D-01  1.3373755195799D+00  5.8623316758349D-01
    34  3.3000000000000D-01  1.3575280389691D+00  5.5879274563015D-01
    35  3.4000000000000D-01  1.3758776552633D+00  5.2994527237994D-01
    36  3.5000000000000D-01  1.3924023540708D+00  4.9990383916304D-01
    37  3.6000000000000D-01  1.4070834290751D+00  4.6887731092382D-01
    38  3.7000000000000D-01  1.4199055769364D+00  4.3706814243778D-01
    39  3.8000000000000D-01  1.4308569830904D+00  4.0467030665778D-01
    40  3.9000000000000D-01  1.4399293975972D+00  3.7186735829087D-01
    41  4.0000000000000D-01  1.4471182002425D+00  3.3883065424062D-01
    42  4.1000000000000D-01  1.4524224541557D+00  3.0571775084525D-01
    43  4.2000000000000D-01  1.4558449472723D+00  2.7267099591213D-01
    44  4.3000000000000D-01  1.4573922210447D+00  2.3981633141588D-01
    45  4.4000000000000D-01  1.4570745858854D+00  2.0726232041248D-01
    46  4.5000000000000D-01  1.4549061229112D+00  1.7509940924570D-01
    47  4.6000000000000D-01  1.4509046716495D+00  1.4339943351438D-01
    48  4.7000000000000D-01  1.4450918034644D+00  1.1221537355446D-01
    49  4.8000000000000D-01  1.4374927805561D+00  8.1581362394922D-02
    50  4.9000000000000D-01  1.4281365004921D+00  5.1512946306280D-02
    51  5.0000000000000D-01  1.4170554263284D+00  2.2007595196662D-02
    52  5.1000000000000D-01  1.4042855024853D+00 -6.9545427377038D-03
    53  5.2000000000000D-01  1.3898660566448D+00 -3.5409650509178D-02
    54  5.3000000000000D-01  1.3738396880378D+00 -6.3409027120675D-02
    55  5.4000000000000D-01  1.3562521425902D+00 -9.1017661403362D-02
    56  5.5000000000000D-01  1.3371521754956D+00 -1.1831261118220D-01
    57  5.6000000000000D-01  1.3165914018699D+00 -1.4538120638743D-01
    58  5.7000000000000D-01  1.2946241362384D+00 -1.7231909688300D-01
    59  5.8000000000000D-01  1.2713072216809D+00 -1.9922816773627D-01
    60  5.9000000000000D-01  1.2466998495410D+00 -2.2621434636217D-01
    61  6.0000000000000D-01  1.2208633706723D+00 -2.5338532744228D-01
    62  6.1000000000000D-01  1.1938610992551D+00 -2.8084824270444D-01
    63  6.2000000000000D-01  1.1657581102684D+00 -3.0870730355721D-01
    64  6.3000000000000D-01  1.1366210317468D+00 -3.3706144517559D-01
    65  6.4000000000000D-01  1.1065178329852D+00 -3.6600200093394D-01
    66  6.5000000000000D-01  1.0755176098761D+00 -3.9561043606342D-01
    67  6.6000000000000D-01  1.0436903685828D+00 -4.2595616908061D-01
    68  6.7000000000000D-01  1.0111068087503D+00 -4.5709450888083D-01
    69  6.8000000000000D-01  9.7783810745561D-01 -4.8906473442669D-01
    70  6.9000000000000D-01  9.4395570507702D-01 -5.2188834269667D-01
    71  7.0000000000000D-01  9.0953109424127D-01 -5.5556748899257D-01
    72  7.1000000000000D-01  8.7463561296752D-01 -5.9008364185843D-01
    73  7.2000000000000D-01  8.3934024308472D-01 -6.2539647275517D-01
    74  7.3000000000000D-01  8.0371541494357D-01 -6.6144299827516D-01
    75  7.4000000000000D-01  7.6783081938280D-01 -6.9813699011477D-01
    76  7.5000000000000D-01  7.3175522783877D-01 -7.3536866523095D-01
    77  7.6000000000000D-01  6.9555632141066D-01 -7.7300466567450D-01
    78  7.7000000000000D-01  6.5930052960990D-01 -8.1088833450184D-01
    79  7.8000000000000D-01  6.2305287943359D-01 -8.4884029097270D-01
    80  7.9000000000000D-01  5.8687685530779D-01 -8.8665930496928D-01
    81  8.0000000000000D-01  5.5083427034967D-01 -9.2412346725851D-01
    82  8.1000000000000D-01  5.1498514929683D-01 -9.6099164889603D-01
    83  8.2000000000000D-01  4.7938762335065D-01 -9.9700523977798D-01
    84  8.3000000000000D-01  4.4409783707768D-01 -1.0318901531164D+00
    85  8.4000000000000D-01  4.0916986741034D-01 -1.0653590794757D+00
    86  8.5000000000000D-01  3.7465565468738D-01 -1.0971139710125D+00
    87  8.6000000000000D-01  3.4060494557517D-01 -1.1268487337232D+00
    88  8.7000000000000D-01  3.0706524761502D-01 -1.1542521028670D+00
    89  8.8000000000000D-01  2.7408179505013D-01 -1.1790106743236D+00
    90  8.9000000000000D-01  2.4169752549887D-01 -1.2008120624917D+00
    91  9.0000000000000D-01  2.0995306696002D-01 -1.2193481534624D+00
    92  9.1000000000000D-01  1.7888673456183D-01 -1.2343184206427D+00
    93  9.2000000000000D-01  1.4853453639903D-01 -1.2454332687579D+00
    94  9.3000000000000D-01  1.1893018774356D-01 -1.2524173712690D+00
    95  9.4000000000000D-01  9.0105132864067D-02 -1.2550129657023D+00
    96  9.5000000000000D-01  6.2088573647563D-02 -1.2529830712117D+00
    97  9.6000000000000D-01  3.4907504184915D-02 -1.2461145928980D+00
    98  9.7000000000000D-01  8.5867504589015D-03 -1.2342212779791D+00
    99  9.8000000000000D-01 -1.6850985738893D-02 -1.2171464898583D+00
   100  9.9000000000000D-01 -4.1385079539157D-02 -1.1947657674442D+00
   101  1.0000000000000D+00 -6.4996933243154D-02 -1.1669891387978D+00
   102  1.0100000000000D+00 -8.7669924941982D-02 -1.1337631601123D+00
   103  1.0200000000000D+00 -1.0938935633351D-01 -1.0950726534759D+00
   104  1.0300000000000D+00 -1.3014240052888D-01 -1.0509421194895D+00
   105  1.0400000000000D+00 -1.4991805059675D-01 -1.0014368037537D+00
   106  1.0500000000000D+00 -1.6870706954209D-01 -9.4666339942364D-01
   107  1.0600000000000D+00 -1.8650194235336D-01 -8.8677037164117D-01
   108  1.0700000000000D+00 -2.0329683069426D-01 -8.2194789283952D-01
   109  1.0800000000000D+00 -2.1908753073402D-01 -7.5242738224010D-01
   110  1.0900000000000D+00 -2.3387143453931D-01 -6.7848064640458D-01
   111  1.1000000000000D+00 -2.4764749536703D-01 -6.0041862184346D-01
   112  1.1100000000000D+00 -2.6041619710996D-01 -5.1858972478715D-01
   113  1.1200000000000D+00 -2.7217952807088D-01 -4.3337781680674D-01
   114  1.1300000000000D+00 -2.8294095913548D-01 -3.4519979970108D-01
   115  1.1400000000000D+00 -2.9270542633867D-01 -2.5450285639550D-01
   116  1.1500000000000D+00 -3.0147931771966D-01 -1.6176135885033D-01
   117  1.1600000000000D+00 -3.0927046429600D-01 -6.7473466756902D-02
   118  1.1700000000000D+00 -3.1608813487389D-01  2.7842554578718D-02
   119  1.1800000000000D+00 -3.2194303435059D-01  1.2365226635916D-01
   120  1.1900000000000D+00 -3.2684730508797D-01  2.1940920463468D-01
   121  1.2000000000000D+00 -3.3081453086789D-01  3.1455920845208D-01
   122  1.2100000000000D+00 -3.3385974286492D-01  4.0854488874431D-01
   123  1.2200000000000D+00 -3.3599942702359D-01  5.0081019736354D-01
   124  1.2300000000000D+00 -3.3725153219390D-01  5.9080505445541D-01
   125  1.2400000000000D+00 -3.3763547830699D-01  6.7798999030671D-01
   126  1.2500000000000D+00 -3.3717216386669D-01  7.6184075808006D-01
   127  1.2600000000000D+00 -3.3588397200857D-01  8.4185287314986D-01
   128  1.2700000000000D+00 -3.3379477435056D-01  9.1754603467765D-01
   129  1.2800000000000D+00 -3.3092993187848D-01  9.8846838664947D-01
   130  1.2900000000000D+00 -3.2731629210160D-01  1.0542005754593D+00
   131  1.3000000000000D+00 -3.2298218172843D-01  1.1143595630186D+00
   132  1.3100000000000D+00 -3.1795739417437D-01  1.1686021578904D+00
   133  1.3200000000000D+00 -3.1227317119147D-01  1.2166282259386D+00
   134  1.3300000000000D+00 -3.0596217799678D-01  1.2581835473257D+00
   135  1.3400000000000D+00 -2.9905847137042D-01  1.2930622914282D+00
   136  1.3500000000000D+00 -2.9159746011626D-01  1.3211090774514D+00
   137  1.3600000000000D+00 -2.8361585753054D-01  1.3422206018009D+00
   138  1.3700000000000D+00 -2.7515162549569D-01  1.3563468115021D+00
   139  1.3800000000000D+00 -2.6624390984529D-01  1.3634916048065D+00
   140  1.3900000000000D+00 -2.5693296694396D-01  1.3637130547393D+00
   141  1.4000000000000D+00 -2.4726008124681D-01  1.3571231425153D+00
   142  1.4100000000000D+00 -2.3726747389957D-01  1.3438870023963D+00
   143  1.4200000000000D+00 -2.2699820253483D-01  1.3242216837854D+00
   144  1.4300000000000D+00 -2.1649605227653D-01  1.2983944297849D+00
   145  1.4400000000000D+00 -2.0580541849233D-01  1.2667204963151D+00
   146  1.4500000000000D+00 -1.9497118146034D-01  1.2295605182856D+00
   147  1.4600000000000D+00 -1.8403857357389D-01  1.1873174508527D+00
   148  1.4700000000000D+00 -1.7305303966269D-01  1.1404331114809D+00
   149  1.4800000000000D+00 -1.6206009096448D-01  1.0893843466661D+00
   150  1.4900000000000D+00 -1.5110515374920D-01  1.0346788685909D+00
   151  1.5000000000000D+00 -1.4023341311722D-01  9.7685078500974D-01
   152  1.5100000000000D+00 -1.2948965316872D-01  9.1645587653477D-01
   153  1.5200000000000D+00 -1.1891809427825D-01  8.5406665433906D-01
   154  1.5300000000000D+00 -1.0856222863068D-01  7.9026725053918D-01
   155  1.5400000000000D+00 -9.8464655009215D-02  7.2564818595722D-01
   156  1.5500000000000D+00 -8.8666913950935D-02  6.6080106562983D-01
   157  1.5600000000000D+00 -7.9209324378615D-02  5.9631325212336D-01
   158  1.5700000000000D+00 -7.0130822865809D-02  5.3276256885859D-01
   159  1.5800000000000D+00 -6.1468806588663D-02  4.7071208105153D-01
   160  1.5900000000000D+00 -5.3258981234548D-02  4.1070501151204D-01
   161  1.6000000000000D+00 -4.5535214755203D-02  3.5325983152771D-01
   162  1.6100000000000D+00 -3.8329398303653D-02  2.9886558714045D-01
   163  1.6200000000000D+00 -3.1671315083723D-02  2.4797749399481D-01
   164  1.6300000000000D+00 -2.5588518407951D-02  2.0101285911699D-01
   165  1.6400000000000D+00 -2.0106219562617D-02  1.5834735705277D-01
   166  1.6500000000000D+00 -1.5247186631020D-02  1.2031171229250D-01
   167  1.6600000000000D+00 -1.1033477536457D-02  8.7203278138693D-02
   168  1.6700000000000D+00 -7.4799315823304D-03  5.9232573250571D-02
   169  1.6800000000000D+00 -4.5880178420678D-03  3.6469898558658D-02
   170  1.6900000000000D+00 -2.3915035059797D-03  1.9217944366041D-02
   171  1.7000000000000D+00 -9.4784844886092D-04  7.9538167408251D-03
   172  1.7100000000000D+00 -1.9738413811484D-04  2.1321637914368D-03
   173  1.7200000000000D+00  5.9921998846546D-05  1.6342633160263D-06
   174  1.7300000000000D+00  5.1700186070554D-05 -2.2580784922030D-04
   175  1.7400000000000D+00 -1.3313729846001D-05  6.6539157196485D-05
   176  1.7500000000000D+00 -1.9774364152981D-05  1.0553474255445D-04
   177  1.7600000000000D+00  1.7314045255857D-06 -7.8003150059119D-06
   178  1.7700000000000D+00  3.9804855055021D-06 -1.8769450603773D-05
   179  1.7800000000000D+00 -2.7007201418009D-09 -3.4262472914331D-07
   180  1.7900000000000D+00 -1.1485014536926D-08 -1.4570373042418D-06
   181  1.8000000000000D+00 -3.8196053684970D-12 -4.8457122030531D-10
   182  1.8100000000000D+00  0.0000000000000D+00  0.0000000000000D+00
   183  1.8200000000000D+00  0.0000000000000D+00  0.0000000000000D+00
   184  1.8300000000000D+00  0.0000000000000D+00  0.0000000000000D+00
   185  1.8400000000000D+00  0.0000000000000D+00  0.0000000000000D+00
   186  1.8500000000000D+00  0.0000000000000D+00  0.0000000000000D+00
   187  1.8600000000000D+00  0.0000000000000D+00  0.0000000000000D+00
   188  1.8700000000000D+00  0.0000000000000D+00  0.0000000000000D+00
   189  1.8800000000000D+00  0.0000000000000D+00  0.0000000000000D+00
   190  1.8900000000000D+00  0.0000000000000D+00  0.0000000000000D+00
   191  1.9000000000000D+00  0.0000000000000D+00  0.0000000000000D+00
   192  1.9100000000000D+00  0.0000000000000D+00  0.0000000000000D+00
   193  1.9200000000000D+00  0.0000000000000D+00  0.0000000000000D+00
   194  1.9300000000000D+00  0.0000000000000D+00  0.0000000000000D+00
   195  1.9400000000000D+00  0.0000000000000D+00  0.0000000000000D+00
   196  1.9500000000000D+00  0.0000000000000D+00  0.0000000000000D+00
   197  1.9600000000000D+00  0.0000000000000D+00  0.0000000000000D+00
   198  1.9700000000000D+00  0.0000000000000D+00  0.0000000000000D+00
   199  1.9800000000000D+00  0.0000000000000D+00  0.0000000000000D+00
   200  1.9900000000000D+00  0.0000000000000D+00  0.0000000000000D+00
   201  2.0000000000000D+00  0.0000000000000D+00  0.0000000000000D+00
   202  2.0100000000000D+00  0.0000000000000D+00  0.0000000000000D+00
   203  2.0200000000000D+00  0.0000000000000D+00  0.0000000000000D+00
   204  2.0300000000000D+00  0.0000000000000D+00  0.0000000000000D+00
   205  2.0400000000000D+00  0.0000000000000D+00  0.0000000000000D+00
   206  2.0500000000000D+00  0.0000000000000D+00  0.0000000000000D+00
   207  2.0600000000000D+00  0.0000000000000D+00  0.0000000000000D+00
   208  2.0700000000000D+00  0.0000000000000D+00  0.0000000000000D+00
   209  2.0800000000000D+00  0.0000000000000D+00  0.0000000000000D+00
   210  2.0900000000000D+00  0.0000000000000D+00  0.0000000000000D+00
   211  2.1000000000000D+00  0.0000000000000D+00  0.0000000000000D+00
   212  2.1100000000000D+00  0.0000000000000D+00  0.0000000000000D+00
   213  2.1200000000000D+00  0.0000000000000D+00  0.0000000000000D+00
   214  2.1300000000000D+00  0.0000000000000D+00  0.0000000000000D+00
   215  2.1400000000000D+00  0.0000000000000D+00  0.0000000000000D+00
   216  2.1500000000000D+00  0.0000000000000D+00  0.0000000000000D+00
   217  2.1600000000000D+00  0.0000000000000D+00  0.0000000000000D+00
   218  2.1700000000000D+00  0.0000000000000D+00  0.0000000000000D+00
   219  2.1800000000000D+00  0.0000000000000D+00  0.0000000000000D+00
   220  2.1900000000000D+00  0.0000000000000D+00  0.0000000000000D+00
   221  2.2000000000000D+00  0.0000000000000D+00  0.0000000000000D+00
   222  2.2100000000000D+00  0.0000000000000D+00  0.0000000000000D+00
   223  2.2200000000000D+00  0.0000000000000D+00  0.0000000000000D+00
   224  2.2300000000000D+00  0.0000000000000D+00  0.0000000000000D+00
   225  2.2400000000000D+00  0.0000000000000D+00  0.0000000000000D+00
   226  2.2500000000000D+00  0.0000000000000D+00  0.0000000000000D+00
   227  2.2600000000000D+00  0.0000000000000D+00  0.0000000000000D+00
   228  2.2700000000000D+00  0.0000000000000D+00  0.0000000000000D+00
   229  2.2800000000000D+00  0.0000000000000D+00  0.0000000000000D+00
   230  2.2900000000000D+00  0.0000000000000D+00  0.0000000000000D+00
   231  2.3000000000000D+00  0.0000000000000D+00  0.0000000000000D+00
   232  2.3100000000000D+00  0.0000000000000D+00  0.0000000000000D+00
   233  2.3200000000000D+00  0.0000000000000D+00  0.0000000000000D+00
   234  2.3300000000000D+00  0.0000000000000D+00  0.0000000000000D+00
   235  2.3400000000000D+00  0.0000000000000D+00  0.0000000000000D+00
   236  2.3500000000000D+00  0.0000000000000D+00  0.0000000000000D+00
   237  2.3600000000000D+00  0.0000000000000D+00  0.0000000000000D+00
   238  2.3700000000000D+00  0.0000000000000D+00  0.0000000000000D+00
   239  2.3800000000000D+00  0.0000000000000D+00  0.0000000000000D+00
   240  2.3900000000000D+00  0.0000000000000D+00  0.0000000000000D+00
   241  2.4000000000000D+00  0.0000000000000D+00  0.0000000000000D+00
   242  2.4100000000000D+00  0.0000000000000D+00  0.0000000000000D+00
   243  2.4200000000000D+00  0.0000000000000D+00  0.0000000000000D+00
   244  2.4300000000000D+00  0.0000000000000D+00  0.0000000000000D+00
   245  2.4400000000000D+00  0.0000000000000D+00  0.0000000000000D+00
   246  2.4500000000000D+00  0.0000000000000D+00  0.0000000000000D+00
   247  2.4600000000000D+00  0.0000000000000D+00  0.0000000000000D+00
   248  2.4700000000000D+00  0.0000000000000D+00  0.0000000000000D+00
   249  2.4800000000000D+00  0.0000000000000D+00  0.0000000000000D+00
   250  2.4900000000000D+00  0.0000000000000D+00  0.0000000000000D+00
   251  2.5000000000000D+00  0.0000000000000D+00  0.0000000000000D+00
   252  2.5100000000000D+00  0.0000000000000D+00  0.0000000000000D+00
   253  2.5200000000000D+00  0.0000000000000D+00  0.0000000000000D+00
   254  2.5300000000000D+00  0.0000000000000D+00  0.0000000000000D+00
   255  2.5400000000000D+00  0.0000000000000D+00  0.0000000000000D+00
   256  2.5500000000000D+00  0.0000000000000D+00  0.0000000000000D+00
   257  2.5600000000000D+00  0.0000000000000D+00  0.0000000000000D+00
   258  2.5700000000000D+00  0.0000000000000D+00  0.0000000000000D+00
   259  2.5800000000000D+00  0.0000000000000D+00  0.0000000000000D+00
   260  2.5900000000000D+00  0.0000000000000D+00  0.0000000000000D+00
   261  2.6000000000000D+00  0.0000000000000D+00  0.0000000000000D+00
   262  2.6100000000000D+00  0.0000000000000D+00  0.0000000000000D+00
   263  2.6200000000000D+00  0.0000000000000D+00  0.0000000000000D+00
   264  2.6300000000000D+00  0.0000000000000D+00  0.0000000000000D+00
   265  2.6400000000000D+00  0.0000000000000D+00  0.0000000000000D+00
   266  2.6500000000000D+00  0.0000000000000D+00  0.0000000000000D+00
   267  2.6600000000000D+00  0.0000000000000D+00  0.0000000000000D+00
   268  2.6700000000000D+00  0.0000000000000D+00  0.0000000000000D+00
   269  2.6800000000000D+00  0.0000000000000D+00  0.0000000000000D+00
   270  2.6900000000000D+00  0.0000000000000D+00  0.0000000000000D+00
   271  2.7000000000000D+00  0.0000000000000D+00  0.0000000000000D+00
   272  2.7100000000000D+00  0.0000000000000D+00  0.0000000000000D+00
   273  2.7200000000000D+00  0.0000000000000D+00  0.0000000000000D+00
   274  2.7300000000000D+00  0.0000000000000D+00  0.0000000000000D+00
   275  2.7400000000000D+00  0.0000000000000D+00  0.0000000000000D+00
   276  2.7500000000000D+00  0.0000000000000D+00  0.0000000000000D+00
   277  2.7600000000000D+00  0.0000000000000D+00  0.0000000000000D+00
   278  2.7700000000000D+00  0.0000000000000D+00  0.0000000000000D+00
   279  2.7800000000000D+00  0.0000000000000D+00  0.0000000000000D+00
   280  2.7900000000000D+00  0.0000000000000D+00  0.0000000000000D+00
   281  2.8000000000000D+00  0.0000000000000D+00  0.0000000000000D+00
   282  2.8100000000000D+00  0.0000000000000D+00  0.0000000000000D+00
   283  2.8200000000000D+00  0.0000000000000D+00  0.0000000000000D+00
   284  2.8300000000000D+00  0.0000000000000D+00  0.0000000000000D+00
   285  2.8400000000000D+00  0.0000000000000D+00  0.0000000000000D+00
   286  2.8500000000000D+00  0.0000000000000D+00  0.0000000000000D+00
   287  2.8600000000000D+00  0.0000000000000D+00  0.0000000000000D+00
   288  2.8700000000000D+00  0.0000000000000D+00  0.0000000000000D+00
   289  2.8800000000000D+00  0.0000000000000D+00  0.0000000000000D+00
   290  2.8900000000000D+00  0.0000000000000D+00  0.0000000000000D+00
   291  2.9000000000000D+00  0.0000000000000D+00  0.0000000000000D+00
   292  2.9100000000000D+00  0.0000000000000D+00  0.0000000000000D+00
   293  2.9200000000000D+00  0.0000000000000D+00  0.0000000000000D+00
   294  2.9300000000000D+00  0.0000000000000D+00  0.0000000000000D+00
   295  2.9400000000000D+00  0.0000000000000D+00  0.0000000000000D+00
   296  2.9500000000000D+00  0.0000000000000D+00  0.0000000000000D+00
   297  2.9600000000000D+00  0.0000000000000D+00  0.0000000000000D+00
   298  2.9700000000000D+00  0.0000000000000D+00  0.0000000000000D+00
   299  2.9800000000000D+00  0.0000000000000D+00  0.0000000000000D+00
   300  2.9900000000000D+00  0.0000000000000D+00  0.0000000000000D+00
   301  3.0000000000000D+00  0.0000000000000D+00  0.0000000000000D+00
   302  3.0100000000000D+00  0.0000000000000D+00  0.0000000000000D+00
   303  3.0200000000000D+00  0.0000000000000D+00  0.0000000000000D+00
   304  3.0300000000000D+00  0.0000000000000D+00  0.0000000000000D+00
   305  3.0400000000000D+00  0.0000000000000D+00  0.0000000000000D+00
   306  3.0500000000000D+00  0.0000000000000D+00  0.0000000000000D+00
   307  3.0600000000000D+00  0.0000000000000D+00  0.0000000000000D+00
   308  3.0700000000000D+00  0.0000000000000D+00  0.0000000000000D+00
   309  3.0800000000000D+00  0.0000000000000D+00  0.0000000000000D+00
   310  3.0900000000000D+00  0.0000000000000D+00  0.0000000000000D+00
   311  3.1000000000000D+00  0.0000000000000D+00  0.0000000000000D+00
   312  3.1100000000000D+00  0.0000000000000D+00  0.0000000000000D+00
   313  3.1200000000000D+00  0.0000000000000D+00  0.0000000000000D+00
   314  3.1300000000000D+00  0.0000000000000D+00  0.0000000000000D+00
   315  3.1400000000000D+00  0.0000000000000D+00  0.0000000000000D+00
   316  3.1500000000000D+00  0.0000000000000D+00  0.0000000000000D+00
   317  3.1600000000000D+00  0.0000000000000D+00  0.0000000000000D+00
   318  3.1700000000000D+00  0.0000000000000D+00  0.0000000000000D+00
   319  3.1800000000000D+00  0.0000000000000D+00  0.0000000000000D+00
   320  3.1900000000000D+00  0.0000000000000D+00  0.0000000000000D+00
   321  3.2000000000000D+00  0.0000000000000D+00  0.0000000000000D+00
   322  3.2100000000000D+00  0.0000000000000D+00  0.0000000000000D+00
   323  3.2200000000000D+00  0.0000000000000D+00  0.0000000000000D+00
   324  3.2300000000000D+00  0.0000000000000D+00  0.0000000000000D+00
   325  3.2400000000000D+00  0.0000000000000D+00  0.0000000000000D+00
   326  3.2500000000000D+00  0.0000000000000D+00  0.0000000000000D+00
   327  3.2600000000000D+00  0.0000000000000D+00  0.0000000000000D+00
   328  3.2700000000000D+00  0.0000000000000D+00  0.0000000000000D+00
   329  3.2800000000000D+00  0.0000000000000D+00  0.0000000000000D+00
   330  3.2900000000000D+00  0.0000000000000D+00  0.0000000000000D+00
   331  3.3000000000000D+00  0.0000000000000D+00  0.0000000000000D+00
   332  3.3100000000000D+00  0.0000000000000D+00  0.0000000000000D+00
   333  3.3200000000000D+00  0.0000000000000D+00  0.0000000000000D+00
   334  3.3300000000000D+00  0.0000000000000D+00  0.0000000000000D+00
   335  3.3400000000000D+00  0.0000000000000D+00  0.0000000000000D+00
   336  3.3500000000000D+00  0.0000000000000D+00  0.0000000000000D+00
   337  3.3600000000000D+00  0.0000000000000D+00  0.0000000000000D+00
   338  3.3700000000000D+00  0.0000000000000D+00  0.0000000000000D+00
   339  3.3800000000000D+00  0.0000000000000D+00  0.0000000000000D+00
   340  3.3900000000000D+00  0.0000000000000D+00  0.0000000000000D+00
   341  3.4000000000000D+00  0.0000000000000D+00  0.0000000000000D+00
   342  3.4100000000000D+00  0.0000000000000D+00  0.0000000000000D+00
   343  3.4200000000000D+00  0.0000000000000D+00  0.0000000000000D+00
   344  3.4300000000000D+00  0.0000000000000D+00  0.0000000000000D+00
   345  3.4400000000000D+00  0.0000000000000D+00  0.0000000000000D+00
   346  3.4500000000000D+00  0.0000000000000D+00  0.0000000000000D+00
   347  3.4600000000000D+00  0.0000000000000D+00  0.0000000000000D+00
   348  3.4700000000000D+00  0.0000000000000D+00  0.0000000000000D+00
   349  3.4800000000000D+00  0.0000000000000D+00  0.0000000000000D+00
   350  3.4900000000000D+00  0.0000000000000D+00  0.0000000000000D+00
   351  3.5000000000000D+00  0.0000000000000D+00  0.0000000000000D+00
   352  3.5100000000000D+00  0.0000000000000D+00  0.0000000000000D+00
   353  3.5200000000000D+00  0.0000000000000D+00  0.0000000000000D+00
   354  3.5300000000000D+00  0.0000000000000D+00  0.0000000000000D+00
   355  3.5400000000000D+00  0.0000000000000D+00  0.0000000000000D+00
   356  3.5500000000000D+00  0.0000000000000D+00  0.0000000000000D+00
   357  3.5600000000000D+00  0.0000000000000D+00  0.0000000000000D+00
   358  3.5700000000000D+00  0.0000000000000D+00  0.0000000000000D+00
   359  3.5800000000000D+00  0.0000000000000D+00  0.0000000000000D+00
   360  3.5900000000000D+00  0.0000000000000D+00  0.0000000000000D+00
   361  3.6000000000000D+00  0.0000000000000D+00  0.0000000000000D+00
   362  3.6100000000000D+00  0.0000000000000D+00  0.0000000000000D+00
   363  3.6200000000000D+00  0.0000000000000D+00  0.0000000000000D+00
   364  3.6300000000000D+00  0.0000000000000D+00  0.0000000000000D+00
   365  3.6400000000000D+00  0.0000000000000D+00  0.0000000000000D+00
   366  3.6500000000000D+00  0.0000000000000D+00  0.0000000000000D+00
   367  3.6600000000000D+00  0.0000000000000D+00  0.0000000000000D+00
   368  3.6700000000000D+00  0.0000000000000D+00  0.0000000000000D+00
   369  3.6800000000000D+00  0.0000000000000D+00  0.0000000000000D+00
   370  3.6900000000000D+00  0.0000000000000D+00  0.0000000000000D+00
   371  3.7000000000000D+00  0.0000000000000D+00  0.0000000000000D+00
   372  3.7100000000000D+00  0.0000000000000D+00  0.0000000000000D+00
   373  3.7200000000000D+00  0.0000000000000D+00  0.0000000000000D+00
   374  3.7300000000000D+00  0.0000000000000D+00  0.0000000000000D+00
   375  3.7400000000000D+00  0.0000000000000D+00  0.0000000000000D+00
   376  3.7500000000000D+00  0.0000000000000D+00  0.0000000000000D+00
   377  3.7600000000000D+00  0.0000000000000D+00  0.0000000000000D+00
   378  3.7700000000000D+00  0.0000000000000D+00  0.0000000000000D+00
   379  3.7800000000000D+00  0.0000000000000D+00  0.0000000000000D+00
   380  3.7900000000000D+00  0.0000000000000D+00  0.0000000000000D+00
   381  3.8000000000000D+00  0.0000000000000D+00  0.0000000000000D+00
   382  3.8100000000000D+00  0.0000000000000D+00  0.0000000000000D+00
   383  3.8200000000000D+00  0.0000000000000D+00  0.0000000000000D+00
   384  3.8300000000000D+00  0.0000000000000D+00  0.0000000000000D+00
   385  3.8400000000000D+00  0.0000000000000D+00  0.0000000000000D+00
   386  3.8500000000000D+00  0.0000000000000D+00  0.0000000000000D+00
   387  3.8600000000000D+00  0.0000000000000D+00  0.0000000000000D+00
   388  3.8700000000000D+00  0.0000000000000D+00  0.0000000000000D+00
   389  3.8800000000000D+00  0.0000000000000D+00  0.0000000000000D+00
   390  3.8900000000000D+00  0.0000000000000D+00  0.0000000000000D+00
   391  3.9000000000000D+00  0.0000000000000D+00  0.0000000000000D+00
   392  3.9100000000000D+00  0.0000000000000D+00  0.0000000000000D+00
   393  3.9200000000000D+00  0.0000000000000D+00  0.0000000000000D+00
   394  3.9300000000000D+00  0.0000000000000D+00  0.0000000000000D+00
   395  3.9400000000000D+00  0.0000000000000D+00  0.0000000000000D+00
   396  3.9500000000000D+00  0.0000000000000D+00  0.0000000000000D+00
   397  3.9600000000000D+00  0.0000000000000D+00  0.0000000000000D+00
   398  3.9700000000000D+00  0.0000000000000D+00  0.0000000000000D+00
   399  3.9800000000000D+00  0.0000000000000D+00  0.0000000000000D+00
   400  3.9900000000000D+00  0.0000000000000D+00  0.0000000000000D+00
   401  4.0000000000000D+00  0.0000000000000D+00  0.0000000000000D+00
   402  4.0100000000000D+00  0.0000000000000D+00  0.0000000000000D+00
   403  4.0200000000000D+00  0.0000000000000D+00  0.0000000000000D+00
   404  4.0300000000000D+00  0.0000000000000D+00  0.0000000000000D+00
   405  4.0400000000000D+00  0.0000000000000D+00  0.0000000000000D+00
   406  4.0500000000000D+00  0.0000000000000D+00  0.0000000000000D+00
   407  4.0600000000000D+00  0.0000000000000D+00  0.0000000000000D+00
   408  4.0700000000000D+00  0.0000000000000D+00  0.0000000000000D+00
   409  4.0800000000000D+00  0.0000000000000D+00  0.0000000000000D+00
   410  4.0900000000000D+00  0.0000000000000D+00  0.0000000000000D+00
   411  4.1000000000000D+00  0.0000000000000D+00  0.0000000000000D+00
   412  4.1100000000000D+00  0.0000000000000D+00  0.0000000000000D+00
   413  4.1200000000000D+00  0.0000000000000D+00  0.0000000000000D+00
   414  4.1300000000000D+00  0.0000000000000D+00  0.0000000000000D+00
   415  4.1400000000000D+00  0.0000000000000D+00  0.0000000000000D+00
   416  4.1500000000000D+00  0.0000000000000D+00  0.0000000000000D+00
   417  4.1600000000000D+00  0.0000000000000D+00  0.0000000000000D+00
   418  4.1700000000000D+00  0.0000000000000D+00  0.0000000000000D+00
   419  4.1800000000000D+00  0.0000000000000D+00  0.0000000000000D+00
   420  4.1900000000000D+00  0.0000000000000D+00  0.0000000000000D+00
   421  4.2000000000000D+00  0.0000000000000D+00  0.0000000000000D+00
   422  4.2100000000000D+00  0.0000000000000D+00  0.0000000000000D+00