Cd    ONCVPSP-3.3.0  r_core=   1.25838   1.30423   1.35174
     48.0000     20.0000      220408    zatom,zion,pspd
     8       2   2     4   600     0    pspcod,pspxc,lmax,lloc,mmax,r2well
  5.99000000  0.00000000  0.00000000    rchrg fchrg qchrg
     2     2     2     0     0    nproj
     1     1           extension_switch
   0                         9.4571609325188D+01  3.9417679595991D+00
     1  0.0000000000000D+00 -5.1912416587641D-09  8.1192482459524D-09
     2  1.0000000000000D-02  1.1246756970352D-01 -2.2288234771117D-02
     3  2.0000000000000D-02  2.2440758808767D-01 -4.4130562920817D-02
     4  3.0000000000000D-02  3.3529719797675D-01 -6.5087327382741D-02
     5  4.0000000000000D-02  4.4462285816563D-01 -8.4731259509106D-02
     6  5.0000000000000D-02  5.5188482197531D-01 -1.0265339868178D-01
     7  6.0000000000000D-02  6.5660140428176D-01 -1.1846868833053D-01
     8  7.0000000000000D-02  7.5831297274557D-01 -1.3182115024755D-01
     9  8.0000000000000D-02  8.5658560416127D-01 -1.4238854720662D-01
    10  9.0000000000000D-02  9.5101435314451D-01 -1.4988645374826D-01
    11  1.0000000000000D-01  1.0412260876615D+00 -1.5407166639052D-01
    12  1.1000000000000D-01  1.1268818540375D+00 -1.5474489724829D-01
    13  1.2000000000000D-01  1.2076787429030D+00 -1.5175270884872D-01
    14  1.3000000000000D-01  1.2833512368784D+00 -1.4498866254907D-01
    15  1.4000000000000D-01  1.3536720304737D+00 -1.3439366811376D-01
    16  1.5000000000000D-01  1.4184523225130D+00 -1.1995553739630D-01
    17  1.6000000000000D-01  1.4775415911751D+00 -1.0170776039893D-01
    18  1.7000000000000D-01  1.5308268713004D+00 -7.9727536950212D-02
    19  1.8000000000000D-01  1.5782315627462D+00 -5.4133111554317D-02
    20  1.9000000000000D-01  1.6197138071049D+00 -2.5080472343734D-02
    21  2.0000000000000D-01  1.6552644778679D+00  7.2405127557389D-03
    22  2.1000000000000D-01  1.6849048359542D+00  4.2610438805400D-02
    23  2.2000000000000D-01  1.7086839083057D+00  8.0785092663784D-02
    24  2.3000000000000D-01  1.7266756518473D+00  1.2150046768428D-01
    25  2.4000000000000D-01  1.7389759684385D+00  1.6447795892637D-01
    26  2.5000000000000D-01  1.7456996384233D+00  2.0942963038560D-01
    27  2.6000000000000D-01  1.7469772409760D+00  2.5606344480687D-01
    28  2.7000000000000D-01  1.7429521286268D+00  3.0408834791769D-01
    29  2.8000000000000D-01  1.7337775211372D+00  3.5321910238903D-01
    30  2.9000000000000D-01  1.7196137803258D+00  4.0318077244575D-01
    31  3.0000000000000D-01  1.7006259225770D+00  4.5371276770854D-01
    32  3.1000000000000D-01  1.6769814196989D+00  5.0457236441450D-01
    33  3.2000000000000D-01  1.6488483316387D+00  5.5553763345764D-01
    34  3.3000000000000D-01  1.6163938064613D+00  6.0640971749868D-01
    35  3.4000000000000D-01  1.5797829741011D+00  6.5701441347116D-01
    36  3.5000000000000D-01  1.5391782508891D+00  7.0720303188478D-01
    37  3.6000000000000D-01  1.4947390619293D+00  7.5685252010172D-01
    38  3.7000000000000D-01  1.4466219782408D+00  8.0586485292534D-01
    39  3.8000000000000D-01  1.3949812554202D+00  8.5416571006931D-01
    40  3.9000000000000D-01  1.3399697506038D+00  9.0170247603976D-01
    41  4.0000000000000D-01  1.2817401849485D+00  9.4844161333860D-01
    42  4.1000000000000D-01  1.2204467098908D+00  9.9436547435909D-01
    43  4.2000000000000D-01  1.1562467272976D+00  1.0394686305942D+00
    44  4.3000000000000D-01  1.0893029064534D+00  1.0837538095252D+00
    45  4.4000000000000D-01  1.0197853348155D+00  1.1272275395457D+00
    46  4.5000000000000D-01  9.4787373474242D-01  1.1698956112753D+00
    47  4.6000000000000D-01  8.7375967509305D-01  1.2117584694376D+00
    48  4.7000000000000D-01  7.9764870478274D-01  1.2528066529657D+00
    49  4.8000000000000D-01  7.1976233514705D-01  1.2930164020554D+00
    50  4.9000000000000D-01  6.4033979932632D-01  1.3323455494371D+00
    51  5.0000000000000D-01  5.5963951985147D-01  1.3707298091958D+00
    52  5.1000000000000D-01  4.7794022015380D-01  1.4080795700420D+00
    53  5.2000000000000D-01  3.9554162176958D-01  1.4442772911499D+00
    54  5.3000000000000D-01  3.1276467648262D-01  1.4791755876336D+00
    55  5.4000000000000D-01  2.2995129140759D-01  1.5125960796383D+00
    56  5.5000000000000D-01  1.4746351490835D-01  1.5443290641179D+00
    57  5.6000000000000D-01  6.5682162125501D-02  1.5741340518567D+00
    58  5.7000000000000D-01 -1.4995129519910D-02  1.6017411946087D+00
    59  5.8000000000000D-01 -9.4156412285736D-02  1.6268536085198D+00
    60  5.9000000000000D-01 -1.7137849254285D-01  1.6491505808479D+00
    61  6.0000000000000D-01 -2.4623052013076D-01  1.6682916275378D+00
    62  6.1000000000000D-01 -3.1827806280300D-01  1.6839213500956D+00
    63  6.2000000000000D-01 -3.8708761399351D-01  1.6956750215301D+00
    64  6.3000000000000D-01 -4.5223147100840D-01  1.7031848136030D+00
    65  6.4000000000000D-01 -5.1329291046371D-01  1.7060865613121D+00
    66  6.5000000000000D-01 -5.6987157872279D-01  1.7040269459984D+00
    67  6.6000000000000D-01 -6.2158900740863D-01  1.6966709659944D+00
    68  6.7000000000000D-01 -6.6809415789020D-01  1.6837095534811D+00
    69  6.8000000000000D-01 -7.0906889425491D-01  1.6648671886675D+00
    70  6.9000000000000D-01 -7.4423328170251D-01  1.6399093575644D+00
    71  7.0000000000000D-01 -7.7335060667428D-01  1.6086496977459D+00
    72  7.1000000000000D-01 -7.9623201642194D-01  1.5709566776544D+00
    73  7.2000000000000D-01 -8.1274067913023D-01  1.5267596592496D+00
    74  7.3000000000000D-01 -8.2279537114240D-01  1.4760542011304D+00
    75  7.4000000000000D-01 -8.2637340516945D-01  1.4189064694995D+00
    76  7.5000000000000D-01 -8.2351282264390D-01  1.3554566375663D+00
    77  7.6000000000000D-01 -8.1431378428645D-01  1.2859211697367D+00
    78  7.7000000000000D-01 -7.9893910546095D-01  1.2105939051598D+00
    79  7.8000000000000D-01 -7.7761389672927D-01  1.1298458755145D+00
    80  7.9000000000000D-01 -7.5062428496453D-01  1.0441238139703D+00
    81  8.0000000000000D-01 -7.1831520617557D-01  9.5394733568160D-01
    82  8.1000000000000D-01 -6.8108727756875D-01  8.5990479454157D-01
    83  8.2000000000000D-01 -6.3939277298347D-01  7.6264784574073D-01
    84  8.3000000000000D-01 -5.9373074244195D-01  6.6288476855935D-01
    85  8.4000000000000D-01 -5.4464133279379D-01  5.6137262824342D-01
    86  8.5000000000000D-01 -4.9269938198229D-01  4.5890837926492D-01
    87  8.6000000000000D-01 -4.3850737405526D-01  3.5631903435963D-01
    88  8.7000000000000D-01 -3.8268785535668D-01  2.5445104396445D-01
    89  8.8000000000000D-01 -3.2587542410359D-01  1.5415904863926D-01
    90  8.9000000000000D-01 -2.6870841552332D-01  5.6294182369395D-02
    91  9.0000000000000D-01 -2.1182041268392D-01 -3.8307883026406D-02
    92  9.1000000000000D-01 -1.5583171887931D-01 -1.2883895314717D-01
    93  9.2000000000000D-01 -1.0134093084921D-01 -2.1453018111688D-01
    94  9.3000000000000D-01 -4.8916753028429D-02 -2.9466358592363D-01
    95  9.4000000000000D-01  9.0980856638931D-04 -3.6858301429327D-01
    96  9.5000000000000D-01  4.7652738331979D-02 -4.3570434714289D-01
    97  9.6000000000000D-01  9.0877661109909D-02 -4.9552476117321D-01
    98  9.7000000000000D-01  1.3020773146974D-01 -5.4763086933036D-01
    99  9.8000000000000D-01  1.6532865482125D-01 -5.9170558051195D-01
   100  9.9000000000000D-01  1.9599274636727D-01 -6.2753353867314D-01
   101  1.0000000000000D+00  2.2202194962942D-01 -6.5500502472595D-01
   102  1.0100000000000D+00  2.4330975269500D-01 -6.7411822895153D-01
   103  1.0200000000000D+00  2.5982195942047D-01 -6.8497982999489D-01
   104  1.0300000000000D+00  2.7159629210464D-01 -6.8780384520014D-01
   105  1.0400000000000D+00  2.7874082231555D-01 -6.8290874710376D-01
   106  1.0500000000000D+00  2.8143124710243D-01 -6.7071287156366D-01
   107  1.0600000000000D+00  2.7990704922875D-01 -6.5172817498300D-01
   108  1.0700000000000D+00  2.7446659821338D-01 -6.2655242522776D-01
   109  1.0800000000000D+00  2.6546127103470D-01 -5.9585994386949D-01
   110  1.0900000000000D+00  2.5328868801164D-01 -5.6039104234720D-01
   111  1.1000000000000D+00  2.3838517689134D-01 -5.2094032090512D-01
   112  1.1100000000000D+00  2.2121759339554D-01 -4.7834402201077D-01
   113  1.1200000000000D+00  2.0227463849344D-01 -4.3346664800328D-01
   114  1.1300000000000D+00  1.8205782554944D-01 -3.8718707209455D-01
   115  1.1400000000000D+00  1.6107225698469D-01 -3.4038438162701D-01
   116  1.1500000000000D+00  1.3981737591376D-01 -2.9392370129023D-01
   117  1.1600000000000D+00  1.1877786150670D-01 -2.4864224897538D-01
   118  1.1700000000000D+00  9.8414836700857D-02 -2.0533587684063D-01
   119  1.1800000000000D+00  7.9157552874215D-02 -1.6474634418445D-01
   120  1.1900000000000D+00  6.1395710286322D-02 -1.2754956006790D-01
   121  1.2000000000000D+00  4.5472566842287D-02 -9.4345024297105D-02
   122  1.2100000000000D+00  3.1678973062957D-02 -6.5646673413359D-02
   123  1.2200000000000D+00  2.0255309978784D-02 -4.1889152803771D-02
   124  1.2300000000000D+00  1.1341641173284D-02 -2.3329665465483D-02
   125  1.2400000000000D+00  5.0633634467006D-03 -1.0220589719361D-02
   126  1.2500000000000D+00  1.7173336077953D-03 -3.1628601100452D-03
   127  1.2600000000000D+00  4.8427323923638D-04 -6.3735118910069D-04
   128  1.2700000000000D+00  5.7272996894890D-05 -3.1758949701060D-05
   129  1.2800000000000D+00 -1.9586521742685D-05 -3.3704894493473D-06
   130  1.2900000000000D+00  2.0866053413143D-06 -1.3189156605614D-06
   131  1.3000000000000D+00  4.2167214233919D-06 -1.9049133293986D-06
   132  1.3100000000000D+00 -1.6489291514002D-06  2.3472362989515D-06
   133  1.3200000000000D+00  0.0000000000000D+00  0.0000000000000D+00
   134  1.3300000000000D+00  0.0000000000000D+00  0.0000000000000D+00
   135  1.3400000000000D+00  0.0000000000000D+00  0.0000000000000D+00
   136  1.3500000000000D+00  0.0000000000000D+00  0.0000000000000D+00
   137  1.3600000000000D+00  0.0000000000000D+00  0.0000000000000D+00
   138  1.3700000000000D+00  0.0000000000000D+00  0.0000000000000D+00
   139  1.3800000000000D+00  0.0000000000000D+00  0.0000000000000D+00
   140  1.3900000000000D+00  0.0000000000000D+00  0.0000000000000D+00
   141  1.4000000000000D+00  0.0000000000000D+00  0.0000000000000D+00
   142  1.4100000000000D+00  0.0000000000000D+00  0.0000000000000D+00
   143  1.4200000000000D+00  0.0000000000000D+00  0.0000000000000D+00
   144  1.4300000000000D+00  0.0000000000000D+00  0.0000000000000D+00
   145  1.4400000000000D+00  0.0000000000000D+00  0.0000000000000D+00
   146  1.4500000000000D+00  0.0000000000000D+00  0.0000000000000D+00
   147  1.4600000000000D+00  0.0000000000000D+00  0.0000000000000D+00
   148  1.4700000000000D+00  0.0000000000000D+00  0.0000000000000D+00
   149  1.4800000000000D+00  0.0000000000000D+00  0.0000000000000D+00
   150  1.4900000000000D+00  0.0000000000000D+00  0.0000000000000D+00
   151  1.5000000000000D+00  0.0000000000000D+00  0.0000000000000D+00
   152  1.5100000000000D+00  0.0000000000000D+00  0.0000000000000D+00
   153  1.5200000000000D+00  0.0000000000000D+00  0.0000000000000D+00
   154  1.5300000000000D+00  0.0000000000000D+00  0.0000000000000D+00
   155  1.5400000000000D+00  0.0000000000000D+00  0.0000000000000D+00
   156  1.5500000000000D+00  0.0000000000000D+00  0.0000000000000D+00
   157  1.5600000000000D+00  0.0000000000000D+00  0.0000000000000D+00
   158  1.5700000000000D+00  0.0000000000000D+00  0.0000000000000D+00
   159  1.5800000000000D+00  0.0000000000000D+00  0.0000000000000D+00
   160  1.5900000000000D+00  0.0000000000000D+00  0.0000000000000D+00
   161  1.6000000000000D+00  0.0000000000000D+00  0.0000000000000D+00
   162  1.6100000000000D+00  0.0000000000000D+00  0.0000000000000D+00
   163  1.6200000000000D+00  0.0000000000000D+00  0.0000000000000D+00
   164  1.6300000000000D+00  0.0000000000000D+00  0.0000000000000D+00
   165  1.6400000000000D+00  0.0000000000000D+00  0.0000000000000D+00
   166  1.6500000000000D+00  0.0000000000000D+00  0.0000000000000D+00
   167  1.6600000000000D+00  0.0000000000000D+00  0.0000000000000D+00
   168  1.6700000000000D+00  0.0000000000000D+00  0.0000000000000D+00
   169  1.6800000000000D+00  0.0000000000000D+00  0.0000000000000D+00
   170  1.6900000000000D+00  0.0000000000000D+00  0.0000000000000D+00
   171  1.7000000000000D+00  0.0000000000000D+00  0.0000000000000D+00
   172  1.7100000000000D+00  0.0000000000000D+00  0.0000000000000D+00
   173  1.7200000000000D+00  0.0000000000000D+00  0.0000000000000D+00
   174  1.7300000000000D+00  0.0000000000000D+00  0.0000000000000D+00
   175  1.7400000000000D+00  0.0000000000000D+00  0.0000000000000D+00
   176  1.7500000000000D+00  0.0000000000000D+00  0.0000000000000D+00
   177  1.7600000000000D+00  0.0000000000000D+00  0.0000000000000D+00
   178  1.7700000000000D+00  0.0000000000000D+00  0.0000000000000D+00
   179  1.7800000000000D+00  0.0000000000000D+00  0.0000000000000D+00
   180  1.7900000000000D+00  0.0000000000000D+00  0.0000000000000D+00
   181  1.8000000000000D+00  0.0000000000000D+00  0.0000000000000D+00
   182  1.8100000000000D+00  0.0000000000000D+00  0.0000000000000D+00
   183  1.8200000000000D+00  0.0000000000000D+00  0.0000000000000D+00
   184  1.8300000000000D+00  0.0000000000000D+00  0.0000000000000D+00
   185  1.8400000000000D+00  0.0000000000000D+00  0.0000000000000D+00
   186  1.8500000000000D+00  0.0000000000000D+00  0.0000000000000D+00
   187  1.8600000000000D+00  0.0000000000000D+00  0.0000000000000D+00
   188  1.8700000000000D+00  0.0000000000000D+00  0.0000000000000D+00
   189  1.8800000000000D+00  0.0000000000000D+00  0.0000000000000D+00
   190  1.8900000000000D+00  0.0000000000000D+00  0.0000000000000D+00
   191  1.9000000000000D+00  0.0000000000000D+00  0.0000000000000D+00
   192  1.9100000000000D+00  0.0000000000000D+00  0.0000000000000D+00
   193  1.9200000000000D+00  0.0000000000000D+00  0.0000000000000D+00
   194  1.9300000000000D+00  0.0000000000000D+00  0.0000000000000D+00
   195  1.9400000000000D+00  0.0000000000000D+00  0.0000000000000D+00
   196  1.9500000000000D+00  0.0000000000000D+00  0.0000000000000D+00
   197  1.9600000000000D+00  0.0000000000000D+00  0.0000000000000D+00
   198  1.9700000000000D+00  0.0000000000000D+00  0.0000000000000D+00
   199  1.9800000000000D+00  0.0000000000000D+00  0.0000000000000D+00
   200  1.9900000000000D+00  0.0000000000000D+00  0.0000000000000D+00
   201  2.0000000000000D+00  0.0000000000000D+00  0.0000000000000D+00
   202  2.0100000000000D+00  0.0000000000000D+00  0.0000000000000D+00
   203  2.0200000000000D+00  0.0000000000000D+00  0.0000000000000D+00
   204  2.0300000000000D+00  0.0000000000000D+00  0.0000000000000D+00
   205  2.0400000000000D+00  0.0000000000000D+00  0.0000000000000D+00
   206  2.0500000000000D+00  0.0000000000000D+00  0.0000000000000D+00
   207  2.0600000000000D+00  0.0000000000000D+00  0.0000000000000D+00
   208  2.0700000000000D+00  0.0000000000000D+00  0.0000000000000D+00
   209  2.0800000000000D+00  0.0000000000000D+00  0.0000000000000D+00
   210  2.0900000000000D+00  0.0000000000000D+00  0.0000000000000D+00
   211  2.1000000000000D+00  0.0000000000000D+00  0.0000000000000D+00
   212  2.1100000000000D+00  0.0000000000000D+00  0.0000000000000D+00
   213  2.1200000000000D+00  0.0000000000000D+00  0.0000000000000D+00
   214  2.1300000000000D+00  0.0000000000000D+00  0.0000000000000D+00
   215  2.1400000000000D+00  0.0000000000000D+00  0.0000000000000D+00
   216  2.1500000000000D+00  0.0000000000000D+00  0.0000000000000D+00
   217  2.1600000000000D+00  0.0000000000000D+00  0.0000000000000D+00
   218  2.1700000000000D+00  0.0000000000000D+00  0.0000000000000D+00
   219  2.1800000000000D+00  0.0000000000000D+00  0.0000000000000D+00
   220  2.1900000000000D+00  0.0000000000000D+00  0.0000000000000D+00
   221  2.2000000000000D+00  0.0000000000000D+00  0.0000000000000D+00
   222  2.2100000000000D+00  0.0000000000000D+00  0.0000000000000D+00
   223  2.2200000000000D+00  0.0000000000000D+00  0.0000000000000D+00
   224  2.2300000000000D+00  0.0000000000000D+00  0.0000000000000D+00
   225  2.2400000000000D+00  0.0000000000000D+00  0.0000000000000D+00
   226  2.2500000000000D+00  0.0000000000000D+00  0.0000000000000D+00
   227  2.2600000000000D+00  0.0000000000000D+00  0.0000000000000D+00
   228  2.2700000000000D+00  0.0000000000000D+00  0.0000000000000D+00
   229  2.2800000000000D+00  0.0000000000000D+00  0.0000000000000D+00
   230  2.2900000000000D+00  0.0000000000000D+00  0.0000000000000D+00
   231  2.3000000000000D+00  0.0000000000000D+00  0.0000000000000D+00
   232  2.3100000000000D+00  0.0000000000000D+00  0.0000000000000D+00
   233  2.3200000000000D+00  0.0000000000000D+00  0.0000000000000D+00
   234  2.3300000000000D+00  0.0000000000000D+00  0.0000000000000D+00
   235  2.3400000000000D+00  0.0000000000000D+00  0.0000000000000D+00
   236  2.3500000000000D+00  0.0000000000000D+00  0.0000000000000D+00
   237  2.3600000000000D+00  0.0000000000000D+00  0.0000000000000D+00
   238  2.3700000000000D+00  0.0000000000000D+00  0.0000000000000D+00
   239  2.3800000000000D+00  0.0000000000000D+00  0.0000000000000D+00
   240  2.3900000000000D+00  0.0000000000000D+00  0.0000000000000D+00
   241  2.4000000000000D+00  0.0000000000000D+00  0.0000000000000D+00
   242  2.4100000000000D+00  0.0000000000000D+00  0.0000000000000D+00
   243  2.4200000000000D+00  0.0000000000000D+00  0.0000000000000D+00
   244  2.4300000000000D+00  0.0000000000000D+00  0.0000000000000D+00
   245  2.4400000000000D+00  0.0000000000000D+00  0.0000000000000D+00
   246  2.4500000000000D+00  0.0000000000000D+00  0.0000000000000D+00
   247  2.4600000000000D+00  0.0000000000000D+00  0.0000000000000D+00
   248  2.4700000000000D+00  0.0000000000000D+00  0.0000000000000D+00
   249  2.4800000000000D+00  0.0000000000000D+00  0.0000000000000D+00
   250  2.4900000000000D+00  0.0000000000000D+00  0.0000000000000D+00
   251  2.5000000000000D+00  0.0000000000000D+00  0.0000000000000D+00
   252  2.5100000000000D+00  0.0000000000000D+00  0.0000000000000D+00
   253  2.5200000000000D+00  0.0000000000000D+00  0.0000000000000D+00
   254  2.5300000000000D+00  0.0000000000000D+00  0.0000000000000D+00
   255  2.5400000000000D+00  0.0000000000000D+00  0.0000000000000D+00
   256  2.5500000000000D+00  0.0000000000000D+00  0.0000000000000D+00
   257  2.5600000000000D+00  0.0000000000000D+00  0.0000000000000D+00
   258  2.5700000000000D+00  0.0000000000000D+00  0.0000000000000D+00
   259  2.5800000000000D+00  0.0000000000000D+00  0.0000000000000D+00
   260  2.5900000000000D+00  0.0000000000000D+00  0.0000000000000D+00
   261  2.6000000000000D+00  0.0000000000000D+00  0.0000000000000D+00
   262  2.6100000000000D+00  0.0000000000000D+00  0.0000000000000D+00
   263  2.6200000000000D+00  0.0000000000000D+00  0.0000000000000D+00
   264  2.6300000000000D+00  0.0000000000000D+00  0.0000000000000D+00
   265  2.6400000000000D+00  0.0000000000000D+00  0.0000000000000D+00
   266  2.6500000000000D+00  0.0000000000000D+00  0.0000000000000D+00
   267  2.6600000000000D+00  0.0000000000000D+00  0.0000000000000D+00
   268  2.6700000000000D+00  0.0000000000000D+00  0.0000000000000D+00
   269  2.6800000000000D+00  0.0000000000000D+00  0.0000000000000D+00
   270  2.6900000000000D+00  0.0000000000000D+00  0.0000000000000D+00
   271  2.7000000000000D+00  0.0000000000000D+00  0.0000000000000D+00
   272  2.7100000000000D+00  0.0000000000000D+00  0.0000000000000D+00
   273  2.7200000000000D+00  0.0000000000000D+00  0.0000000000000D+00
   274  2.7300000000000D+00  0.0000000000000D+00  0.0000000000000D+00
   275  2.7400000000000D+00  0.0000000000000D+00  0.0000000000000D+00
   276  2.7500000000000D+00  0.0000000000000D+00  0.0000000000000D+00
   277  2.7600000000000D+00  0.0000000000000D+00  0.0000000000000D+00
   278  2.7700000000000D+00  0.0000000000000D+00  0.0000000000000D+00
   279  2.7800000000000D+00  0.0000000000000D+00  0.0000000000000D+00
   280  2.7900000000000D+00  0.0000000000000D+00  0.0000000000000D+00
   281  2.8000000000000D+00  0.0000000000000D+00  0.0000000000000D+00
   282  2.8100000000000D+00  0.0000000000000D+00  0.0000000000000D+00
   283  2.8200000000000D+00  0.0000000000000D+00  0.0000000000000D+00
   284  2.8300000000000D+00  0.0000000000000D+00  0.0000000000000D+00
   285  2.8400000000000D+00  0.0000000000000D+00  0.0000000000000D+00
   286  2.8500000000000D+00  0.0000000000000D+00  0.0000000000000D+00
   287  2.8600000000000D+00  0.0000000000000D+00  0.0000000000000D+00
   288  2.8700000000000D+00  0.0000000000000D+00  0.0000000000000D+00
   289  2.8800000000000D+00  0.0000000000000D+00  0.0000000000000D+00
   290  2.8900000000000D+00  0.0000000000000D+00  0.0000000000000D+00
   291  2.9000000000000D+00  0.0000000000000D+00  0.0000000000000D+00
   292  2.9100000000000D+00  0.0000000000000D+00  0.0000000000000D+00
   293  2.9200000000000D+00  0.0000000000000D+00  0.0000000000000D+00
   294  2.9300000000000D+00  0.0000000000000D+00  0.0000000000000D+00
   295  2.9400000000000D+00  0.0000000000000D+00  0.0000000000000D+00
   296  2.9500000000000D+00  0.0000000000000D+00  0.0000000000000D+00
   297  2.9600000000000D+00  0.0000000000000D+00  0.0000000000000D+00
   298  2.9700000000000D+00  0.0000000000000D+00  0.0000000000000D+00
   299  2.9800000000000D+00  0.0000000000000D+00  0.0000000000000D+00
   300  2.9900000000000D+00  0.0000000000000D+00  0.0000000000000D+00
   301  3.0000000000000D+00  0.0000000000000D+00  0.0000000000000D+00
   302  3.0100000000000D+00  0.0000000000000D+00  0.0000000000000D+00
   303  3.0200000000000D+00  0.0000000000000D+00  0.0000000000000D+00
   304  3.0300000000000D+00  0.0000000000000D+00  0.0000000000000D+00
   305  3.0400000000000D+00  0.0000000000000D+00  0.0000000000000D+00
   306  3.0500000000000D+00  0.0000000000000D+00  0.0000000000000D+00
   307  3.0600000000000D+00  0.0000000000000D+00  0.0000000000000D+00
   308  3.0700000000000D+00  0.0000000000000D+00  0.0000000000000D+00
   309  3.0800000000000D+00  0.0000000000000D+00  0.0000000000000D+00
   310  3.0900000000000D+00  0.0000000000000D+00  0.0000000000000D+00
   311  3.1000000000000D+00  0.0000000000000D+00  0.0000000000000D+00
   312  3.1100000000000D+00  0.0000000000000D+00  0.0000000000000D+00
   313  3.1200000000000D+00  0.0000000000000D+00  0.0000000000000D+00
   314  3.1300000000000D+00  0.0000000000000D+00  0.0000000000000D+00
   315  3.1400000000000D+00  0.0000000000000D+00  0.0000000000000D+00
   316  3.1500000000000D+00  0.0000000000000D+00  0.0000000000000D+00
   317  3.1600000000000D+00  0.0000000000000D+00  0.0000000000000D+00
   318  3.1700000000000D+00  0.0000000000000D+00  0.0000000000000D+00
   319  3.1800000000000D+00  0.0000000000000D+00  0.0000000000000D+00
   320  3.1900000000000D+00  0.0000000000000D+00  0.0000000000000D+00
   321  3.2000000000000D+00  0.0000000000000D+00  0.0000000000000D+00
   322  3.2100000000000D+00  0.0000000000000D+00  0.0000000000000D+00
   323  3.2200000000000D+00  0.0000000000000D+00  0.0000000000000D+00
   324  3.2300000000000D+00  0.0000000000000D+00  0.0000000000000D+00
   325  3.2400000000000D+00  0.0000000000000D+00  0.0000000000000D+00
   326  3.2500000000000D+00  0.0000000000000D+00  0.0000000000000D+00
   327  3.2600000000000D+00  0.0000000000000D+00  0.0000000000000D+00
   328  3.2700000000000D+00  0.0000000000000D+00  0.0000000000000D+00
   329  3.2800000000000D+00  0.0000000000000D+00  0.0000000000000D+00
   330  3.2900000000000D+00  0.0000000000000D+00  0.0000000000000D+00
   331  3.3000000000000D+00  0.0000000000000D+00  0.0000000000000D+00
   332  3.3100000000000D+00  0.0000000000000D+00  0.0000000000000D+00
   333  3.3200000000000D+00  0.0000000000000D+00  0.0000000000000D+00
   334  3.3300000000000D+00  0.0000000000000D+00  0.0000000000000D+00
   335  3.3400000000000D+00  0.0000000000000D+00  0.0000000000000D+00
   336  3.3500000000000D+00  0.0000000000000D+00  0.0000000000000D+00
   337  3.3600000000000D+00  0.0000000000000D+00  0.0000000000000D+00
   338  3.3700000000000D+00  0.0000000000000D+00  0.0000000000000D+00
   339  3.3800000000000D+00  0.0000000000000D+00  0.0000000000000D+00
   340  3.3900000000000D+00  0.0000000000000D+00  0.0000000000000D+00
   341  3.4000000000000D+00  0.0000000000000D+00  0.0000000000000D+00
   342  3.4100000000000D+00  0.0000000000000D+00  0.0000000000000D+00
   343  3.4200000000000D+00  0.0000000000000D+00  0.0000000000000D+00
   344  3.4300000000000D+00  0.0000000000000D+00  0.0000000000000D+00
   345  3.4400000000000D+00  0.0000000000000D+00  0.0000000000000D+00
   346  3.4500000000000D+00  0.0000000000000D+00  0.0000000000000D+00
   347  3.4600000000000D+00  0.0000000000000D+00  0.0000000000000D+00
   348  3.4700000000000D+00  0.0000000000000D+00  0.0000000000000D+00
   349  3.4800000000000D+00  0.0000000000000D+00  0.0000000000000D+00
   350  3.4900000000000D+00  0.0000000000000D+00  0.0000000000000D+00
   351  3.5000000000000D+00  0.0000000000000D+00  0.0000000000000D+00
   352  3.5100000000000D+00  0.0000000000000D+00  0.0000000000000D+00
   353  3.5200000000000D+00  0.0000000000000D+00  0.0000000000000D+00
   354  3.5300000000000D+00  0.0000000000000D+00  0.0000000000000D+00
   355  3.5400000000000D+00  0.0000000000000D+00  0.0000000000000D+00
   356  3.5500000000000D+00  0.0000000000000D+00  0.0000000000000D+00
   357  3.5600000000000D+00  0.0000000000000D+00  0.0000000000000D+00
   358  3.5700000000000D+00  0.0000000000000D+00  0.0000000000000D+00
   359  3.5800000000000D+00  0.0000000000000D+00  0.0000000000000D+00
   360  3.5900000000000D+00  0.0000000000000D+00  0.0000000000000D+00
   361  3.6000000000000D+00  0.0000000000000D+00  0.0000000000000D+00
   362  3.6100000000000D+00  0.0000000000000D+00  0.0000000000000D+00
   363  3.6200000000000D+00  0.0000000000000D+00  0.0000000000000D+00
   364  3.6300000000000D+00  0.0000000000000D+00  0.0000000000000D+00
   365  3.6400000000000D+00  0.0000000000000D+00  0.0000000000000D+00
   366  3.6500000000000D+00  0.0000000000000D+00  0.0000000000000D+00
   367  3.6600000000000D+00  0.0000000000000D+00  0.0000000000000D+00
   368  3.6700000000000D+00  0.0000000000000D+00  0.0000000000000D+00
   369  3.6800000000000D+00  0.0000000000000D+00  0.0000000000000D+00
   370  3.6900000000000D+00  0.0000000000000D+00  0.0000000000000D+00
   371  3.7000000000000D+00  0.0000000000000D+00  0.0000000000000D+00
   372  3.7100000000000D+00  0.0000000000000D+00  0.0000000000000D+00
   373  3.7200000000000D+00  0.0000000000000D+00  0.0000000000000D+00
   374  3.7300000000000D+00  0.0000000000000D+00  0.0000000000000D+00
   375  3.7400000000000D+00  0.0000000000000D+00  0.0000000000000D+00
   376  3.7500000000000D+00  0.0000000000000D+00  0.0000000000000D+00
   377  3.7600000000000D+00  0.0000000000000D+00  0.0000000000000D+00
   378  3.7700000000000D+00  0.0000000000000D+00  0.0000000000000D+00
   379  3.7800000000000D+00  0.0000000000000D+00  0.0000000000000D+00
   380  3.7900000000000D+00  0.0000000000000D+00  0.0000000000000D+00
   381  3.8000000000000D+00  0.0000000000000D+00  0.0000000000000D+00
   382  3.8100000000000D+00  0.0000000000000D+00  0.0000000000000D+00
   383  3.8200000000000D+00  0.0000000000000D+00  0.0000000000000D+00
   384  3.8300000000000D+00  0.0000000000000D+00  0.0000000000000D+00
   385  3.8400000000000D+00  0.0000000000000D+00  0.0000000000000D+00
   386  3.8500000000000D+00  0.0000000000000D+00  0.0000000000000D+00
   387  3.8600000000000D+00  0.0000000000000D+00  0.0000000000000D+00
   388  3.8700000000000D+00  0.0000000000000D+00  0.0000000000000D+00
   389  3.8800000000000D+00  0.0000000000000D+00  0.0000000000000D+00
   390  3.8900000000000D+00  0.0000000000000D+00  0.0000000000000D+00
   391  3.9000000000000D+00  0.0000000000000D+00  0.0000000000000D+00
   392  3.9100000000000D+00  0.0000000000000D+00  0.0000000000000D+00
   393  3.9200000000000D+00  0.0000000000000D+00  0.0000000000000D+00
   394  3.9300000000000D+00  0.0000000000000D+00  0.0000000000000D+00
   395  3.9400000000000D+00  0.0000000000000D+00  0.0000000000000D+00
   396  3.9500000000000D+00  0.0000000000000D+00  0.0000000000000D+00
   397  3.9600000000000D+00  0.0000000000000D+00  0.0000000000000D+00
   398  3.9700000000000D+00  0.0000000000000D+00  0.0000000000000D+00
   399  3.9800000000000D+00  0.0000000000000D+00  0.0000000000000D+00
   400  3.9900000000000D+00  0.0000000000000D+00  0.0000000000000D+00
   401  4.0000000000000D+00  0.0000000000000D+00  0.0000000000000D+00
   402  4.0100000000000D+00  0.0000000000000D+00  0.0000000000000D+00
   403  4.0200000000000D+00  0.0000000000000D+00  0.0000000000000D+00
   404  4.0300000000000D+00  0.0000000000000D+00  0.0000000000000D+00
   405  4.0400000000000D+00  0.0000000000000D+00  0.0000000000000D+00
   406  4.0500000000000D+00  0.0000000000000D+00  0.0000000000000D+00
   407  4.0600000000000D+00  0.0000000000000D+00  0.0000000000000D+00
   408  4.0700000000000D+00  0.0000000000000D+00  0.0000000000000D+00
   409  4.0800000000000D+00  0.0000000000000D+00  0.0000000000000D+00
   410  4.0900000000000D+00  0.0000000000000D+00  0.0000000000000D+00
   411  4.1000000000000D+00  0.0000000000000D+00  0.0000000000000D+00
   412  4.1100000000000D+00  0.0000000000000D+00  0.0000000000000D+00
   413  4.1200000000000D+00  0.0000000000000D+00  0.0000000000000D+00
   414  4.1300000000000D+00  0.0000000000000D+00  0.0000000000000D+00
   415  4.1400000000000D+00  0.0000000000000D+00  0.0000000000000D+00
   416  4.1500000000000D+00  0.0000000000000D+00  0.0000000000000D+00
   417  4.1600000000000D+00  0.0000000000000D+00  0.0000000000000D+00
   418  4.1700000000000D+00  0.0000000000000D+00  0.0000000000000D+00
   419  4.1800000000000D+00  0.0000000000000D+00  0.0000000000000D+00
   420  4.1900000000000D+00  0.0000000000000D+00  0.0000000000000D+00
   421  4.2000000000000D+00  0.0000000000000D+00  0.0000000000000D+00
   422  4.2100000000000D+00  0.0000000000000D+00  0.0000000000000D+00