Cd    ONCVPSP-3.3.0  r_core=   1.21414   1.21414   1.25838
     48.0000     20.0000      220408    zatom,zion,pspd
     8       2   2     4   600     0    pspcod,pspxc,lmax,lloc,mmax,r2well
  5.99000000  0.00000000  0.00000000    rchrg fchrg qchrg
     2     2     2     0     0    nproj
     1     1           extension_switch
   0                         1.9434976981753D+01  1.5058716736399D+00
     1  0.0000000000000D+00 -1.5876510106594D-09  8.1658187989220D-09
     2  1.0000000000000D-02  8.7763378650717D-02 -4.6957488455124D-02
     3  2.0000000000000D-02  1.7527996354221D-01 -9.3507025856339D-02
     4  3.0000000000000D-02  2.6230426790542D-01 -1.3924574320753D-01
     5  4.0000000000000D-02  3.4859339989603D-01 -1.8378083572133D-01
     6  5.0000000000000D-02  4.3390831283735D-01 -2.2673434730854D-01
     7  6.0000000000000D-02  5.1801499996514D-01 -2.6774766391062D-01
     8  7.0000000000000D-02  6.0068561709031D-01 -3.0648562845805D-01
     9  8.0000000000000D-02  6.8169951818271D-01 -3.4264019840329D-01
    10  9.0000000000000D-02  7.6084419079841D-01 -3.7593357666065D-01
    11  1.0000000000000D-01  8.3791608047966D-01 -4.0612075817991D-01
    12  1.1000000000000D-01  9.1272129570516D-01 -4.3299144704729D-01
    13  1.2000000000000D-01  9.8507618760184D-01 -4.5637131267946D-01
    14  1.3000000000000D-01  1.0548078013917D+00 -4.7612256806681D-01
    15  1.4000000000000D-01  1.1217541993752D+00 -4.9214386782419D-01
    16  1.5000000000000D-01  1.1857646580838D+00 -5.0436953870668D-01
    17  1.6000000000000D-01  1.2466997450030D+00 -5.1276816992567D-01
    18  1.7000000000000D-01  1.3044312829139D+00 -5.1734060473817D-01
    19  1.8000000000000D-01  1.3588422123557D+00 -5.1811738807355D-01
    20  1.9000000000000D-01  1.4098263649312D+00 -5.1515573711242D-01
    21  2.0000000000000D-01  1.4572881620903D+00 -5.0853611247324D-01
    22  2.1000000000000D-01  1.5011422556012D+00 -4.9835847674511D-01
    23  2.2000000000000D-01  1.5413131271072D+00 -4.8473833432371D-01
    24  2.3000000000000D-01  1.5777346649351D+00 -4.6780265168188D-01
    25  2.4000000000000D-01  1.6103497366547D+00 -4.4768576020654D-01
    26  2.5000000000000D-01  1.6391097757583D+00 -4.2452534446848D-01
    27  2.6000000000000D-01  1.6639744002455D+00 -3.9845861722053D-01
    28  2.7000000000000D-01  1.6849110798567D+00 -3.6961877854604D-01
    29  2.8000000000000D-01  1.7018948672195D+00 -3.3813185046042D-01
    30  2.9000000000000D-01  1.7149082062771D+00 -3.0411397000565D-01
    31  3.0000000000000D-01  1.7239408290961D+00 -2.6766921362009D-01
    32  3.1000000000000D-01  1.7289897495475D+00 -2.2888801351060D-01
    33  3.2000000000000D-01  1.7300593594635D+00 -1.8784621313328D-01
    34  3.3000000000000D-01  1.7271616297654D+00 -1.4460479397841D-01
    35  3.4000000000000D-01  1.7203164157943D+00 -9.9210289956787D-02
    36  3.5000000000000D-01  1.7095518627244D+00 -5.1695889131230D-02
    37  3.6000000000000D-01  1.6949049035832D+00 -2.0832056761916D-03
    38  3.7000000000000D-01  1.6764218391082D+00  4.9615311854171D-02
    39  3.8000000000000D-01  1.6541589855244D+00  1.0339338624649D-01
    40  3.9000000000000D-01  1.6281833733971D+00  1.5924739722029D-01
    41  4.0000000000000D-01  1.5985734780832D+00  2.1717242721306D-01
    42  4.1000000000000D-01  1.5654199600283D+00  2.7715796063057D-01
    43  4.2000000000000D-01  1.5288263913125D+00  3.3918334098623D-01
    44  4.3000000000000D-01  1.4889099434781D+00  4.0321309942201D-01
    45  4.4000000000000D-01  1.4458020108317D+00  4.6919227484778D-01
    46  4.5000000000000D-01  1.3996487431350D+00  5.3704185015611D-01
    47  4.6000000000000D-01  1.3506114619048D+00  6.0665443051655D-01
    48  4.7000000000000D-01  1.2988669354570D+00  6.7789028853330D-01
    49  4.8000000000000D-01  1.2446074893361D+00  7.5057389702246D-01
    50  4.9000000000000D-01  1.1880409308764D+00  8.2449106335081D-01
    51  5.0000000000000D-01  1.1293902693069D+00  8.9938676975797D-01
    52  5.1000000000000D-01  1.0688932160022D+00  9.7496381199356D-01
    53  5.2000000000000D-01  1.0068014531558D+00  1.0508823141484D+00
    54  5.3000000000000D-01  9.4337966323253D-01  1.1267601809720D+00
    55  5.4000000000000D-01  8.7890431599287D-01  1.2021745305751D+00
    56  5.5000000000000D-01  8.1366221456059D-01  1.2766641305635D+00
    57  5.6000000000000D-01  7.4794880688267D-01  1.3497328396654D+00
    58  5.7000000000000D-01  6.8206627385455D-01  1.4208540353472D+00
    59  5.8000000000000D-01  6.1632141031532D-01  1.4894759860114D+00
    60  5.9000000000000D-01  5.5102331989460D-01  1.5550281048231D+00
    61  6.0000000000000D-01  4.8648094927163D-01  1.6169280012232D+00
    62  6.1000000000000D-01  4.2300049162629D-01  1.6745892264940D+00
    63  6.2000000000000D-01  3.6088269288901D-01  1.7274295914869D+00
    64  6.3000000000000D-01  3.0042009767582D-01  1.7748799185336D+00
    65  6.4000000000000D-01  2.4189427450204D-01  1.8163930757511D+00
    66  6.5000000000000D-01  1.8557306188968D-01  1.8514531309506D+00
    67  6.6000000000000D-01  1.3170787827737D-01  1.8795844544063D+00
    68  6.7000000000000D-01  8.0531139162695D-02  1.9003605950156D+00
    69  6.8000000000000D-01  3.2253824606558D-02  1.9134127531795D+00
    70  6.9000000000000D-01 -1.2936760886639D-02  1.9184376760367D+00
    71  7.0000000000000D-01 -5.4878996050818D-02  1.9152048066186D+00
    72  7.1000000000000D-01 -9.3438680803340D-02  1.9035625279822D+00
    73  7.2000000000000D-01 -1.2851047069012D-01  1.8834433562999D+00
    74  7.3000000000000D-01 -1.6001897834397D-01  1.8548679531007D+00
    75  7.4000000000000D-01 -1.8791951737628D-01  1.8179478459511D+00
    76  7.5000000000000D-01 -2.1219846966559D-01  1.7728867688406D+00
    77  7.6000000000000D-01 -2.3287326298247D-01  1.7199805575755D+00
    78  7.7000000000000D-01 -2.4999195227883D-01  1.6596155614858D+00
    79  7.8000000000000D-01 -2.6363240461415D-01  1.5922655600536D+00
    80  7.9000000000000D-01 -2.7390109447738D-01  1.5184872012016D+00
    81  8.0000000000000D-01 -2.8093152306017D-01  1.4389140063566D+00
    82  8.1000000000000D-01 -2.8488228171866D-01  1.3542490155003D+00
    83  8.2000000000000D-01 -2.8593478627655D-01  1.2652561725674D+00
    84  8.3000000000000D-01 -2.8429071486959D-01  1.1727505773119D+00
    85  8.4000000000000D-01 -2.8016918756555D-01  1.0775877534941D+00
    86  8.5000000000000D-01 -2.7380373089570D-01  9.8065210442507D-01
    87  8.6000000000000D-01 -2.6543907461402D-01  8.8284474512968D-01
    88  8.7000000000000D-01 -2.5532783135056D-01  7.8507091518710D-01
    89  8.8000000000000D-01 -2.4372711227276D-01  6.8822718732768D-01
    90  8.9000000000000D-01 -2.3089513335067D-01  5.9318869383773D-01
    91  9.0000000000000D-01 -2.1708786728888D-01  5.0079659550320D-01
    92  9.1000000000000D-01 -2.0255579563043D-01  4.1184601615223D-01
    93  9.2000000000000D-01 -1.8754081393711D-01  3.2707465974115D-01
    94  9.3000000000000D-01 -1.7227334032231D-01  2.4715231641640D-01
    95  9.4000000000000D-01 -1.5696967401174D-01  1.7267144928899D-01
    96  9.5000000000000D-01 -1.4182964607143D-01  1.0413903493993D-01
    97  9.6000000000000D-01 -1.2703459905986D-01  4.1969808285930D-02
    98  9.7000000000000D-01 -1.1274572622190D-01 -1.3518963236489D-02
    99  9.8000000000000D-01 -9.9102794058582D-02 -6.2111079696697D-02
   100  9.9000000000000D-01 -8.6223264826661D-02 -1.0369331710584D-01
   101  1.0000000000000D+00 -7.4201827704834D-02 -1.3825561148609D-01
   102  1.0100000000000D+00 -6.3110339726475D-02 -1.6588951812778D-01
   103  1.0200000000000D+00 -5.2998169274135D-02 -1.8678498080791D-01
   104  1.0300000000000D+00 -4.3892927117719D-02 -2.0122547893482D-01
   105  1.0400000000000D+00 -3.5801562280549D-02 -2.0958165331786D-01
   106  1.0500000000000D+00 -2.8711792680432D-02 -2.1230354249150D-01
   107  1.0600000000000D+00 -2.2593833483504D-02 -2.0991159137738D-01
   108  1.0700000000000D+00 -1.7402380508916D-02 -2.0298661792484D-01
   109  1.0800000000000D+00 -1.3078799911352D-02 -1.9215894940413D-01
   110  1.0900000000000D+00 -9.5534714071246D-03 -1.7809695688468D-01
   111  1.1000000000000D+00 -6.7482286345880D-03 -1.6149523204373D-01
   112  1.1100000000000D+00 -4.5788379429354D-03 -1.4306266014375D-01
   113  1.1200000000000D+00 -2.9574534270001D-03 -1.2351065982927D-01
   114  1.1300000000000D+00 -1.7950015811845D-03 -1.0354177743534D-01
   115  1.1400000000000D+00 -1.0033789453151D-03 -8.3839193669868D-02
   116  1.1500000000000D+00 -4.9768075891231D-04 -6.5055944292536D-02
   117  1.1600000000000D+00 -1.9730326635061D-04 -4.7809905419718D-02
   118  1.1700000000000D+00 -2.9687637192356D-05 -3.2664515796761D-02
   119  1.1800000000000D+00  6.4489833269714D-05 -2.0109291335575D-02
   120  1.1900000000000D+00  1.2220201220590D-04 -1.0442616987874D-02
   121  1.2000000000000D+00  1.7184548606148D-04 -4.0921596060292D-03
   122  1.2100000000000D+00  2.1714118993362D-04 -1.2397334651243D-03
   123  1.2200000000000D+00  1.2848438816717D-04 -2.7508084748248D-04
   124  1.2300000000000D+00 -8.6309105224019D-06  1.1311530398456D-05
   125  1.2400000000000D+00 -1.2644416828218D-05  1.0883305285437D-05
   126  1.2500000000000D+00  4.9906971678427D-06 -7.6092223172649D-06
   127  1.2600000000000D+00 -2.2163681750771D-07  7.8833970639033D-07
   128  1.2700000000000D+00 -3.6524703382462D-07  1.2991466970294D-06
   129  1.2800000000000D+00  0.0000000000000D+00  0.0000000000000D+00
   130  1.2900000000000D+00  0.0000000000000D+00  0.0000000000000D+00
   131  1.3000000000000D+00  0.0000000000000D+00  0.0000000000000D+00
   132  1.3100000000000D+00  0.0000000000000D+00  0.0000000000000D+00
   133  1.3200000000000D+00  0.0000000000000D+00  0.0000000000000D+00
   134  1.3300000000000D+00  0.0000000000000D+00  0.0000000000000D+00
   135  1.3400000000000D+00  0.0000000000000D+00  0.0000000000000D+00
   136  1.3500000000000D+00  0.0000000000000D+00  0.0000000000000D+00
   137  1.3600000000000D+00  0.0000000000000D+00  0.0000000000000D+00
   138  1.3700000000000D+00  0.0000000000000D+00  0.0000000000000D+00
   139  1.3800000000000D+00  0.0000000000000D+00  0.0000000000000D+00
   140  1.3900000000000D+00  0.0000000000000D+00  0.0000000000000D+00
   141  1.4000000000000D+00  0.0000000000000D+00  0.0000000000000D+00
   142  1.4100000000000D+00  0.0000000000000D+00  0.0000000000000D+00
   143  1.4200000000000D+00  0.0000000000000D+00  0.0000000000000D+00
   144  1.4300000000000D+00  0.0000000000000D+00  0.0000000000000D+00
   145  1.4400000000000D+00  0.0000000000000D+00  0.0000000000000D+00
   146  1.4500000000000D+00  0.0000000000000D+00  0.0000000000000D+00
   147  1.4600000000000D+00  0.0000000000000D+00  0.0000000000000D+00
   148  1.4700000000000D+00  0.0000000000000D+00  0.0000000000000D+00
   149  1.4800000000000D+00  0.0000000000000D+00  0.0000000000000D+00
   150  1.4900000000000D+00  0.0000000000000D+00  0.0000000000000D+00
   151  1.5000000000000D+00  0.0000000000000D+00  0.0000000000000D+00
   152  1.5100000000000D+00  0.0000000000000D+00  0.0000000000000D+00
   153  1.5200000000000D+00  0.0000000000000D+00  0.0000000000000D+00
   154  1.5300000000000D+00  0.0000000000000D+00  0.0000000000000D+00
   155  1.5400000000000D+00  0.0000000000000D+00  0.0000000000000D+00
   156  1.5500000000000D+00  0.0000000000000D+00  0.0000000000000D+00
   157  1.5600000000000D+00  0.0000000000000D+00  0.0000000000000D+00
   158  1.5700000000000D+00  0.0000000000000D+00  0.0000000000000D+00
   159  1.5800000000000D+00  0.0000000000000D+00  0.0000000000000D+00
   160  1.5900000000000D+00  0.0000000000000D+00  0.0000000000000D+00
   161  1.6000000000000D+00  0.0000000000000D+00  0.0000000000000D+00
   162  1.6100000000000D+00  0.0000000000000D+00  0.0000000000000D+00
   163  1.6200000000000D+00  0.0000000000000D+00  0.0000000000000D+00
   164  1.6300000000000D+00  0.0000000000000D+00  0.0000000000000D+00
   165  1.6400000000000D+00  0.0000000000000D+00  0.0000000000000D+00
   166  1.6500000000000D+00  0.0000000000000D+00  0.0000000000000D+00
   167  1.6600000000000D+00  0.0000000000000D+00  0.0000000000000D+00
   168  1.6700000000000D+00  0.0000000000000D+00  0.0000000000000D+00
   169  1.6800000000000D+00  0.0000000000000D+00  0.0000000000000D+00
   170  1.6900000000000D+00  0.0000000000000D+00  0.0000000000000D+00
   171  1.7000000000000D+00  0.0000000000000D+00  0.0000000000000D+00
   172  1.7100000000000D+00  0.0000000000000D+00  0.0000000000000D+00
   173  1.7200000000000D+00  0.0000000000000D+00  0.0000000000000D+00
   174  1.7300000000000D+00  0.0000000000000D+00  0.0000000000000D+00
   175  1.7400000000000D+00  0.0000000000000D+00  0.0000000000000D+00
   176  1.7500000000000D+00  0.0000000000000D+00  0.0000000000000D+00
   177  1.7600000000000D+00  0.0000000000000D+00  0.0000000000000D+00
   178  1.7700000000000D+00  0.0000000000000D+00  0.0000000000000D+00
   179  1.7800000000000D+00  0.0000000000000D+00  0.0000000000000D+00
   180  1.7900000000000D+00  0.0000000000000D+00  0.0000000000000D+00
   181  1.8000000000000D+00  0.0000000000000D+00  0.0000000000000D+00
   182  1.8100000000000D+00  0.0000000000000D+00  0.0000000000000D+00
   183  1.8200000000000D+00  0.0000000000000D+00  0.0000000000000D+00
   184  1.8300000000000D+00  0.0000000000000D+00  0.0000000000000D+00
   185  1.8400000000000D+00  0.0000000000000D+00  0.0000000000000D+00
   186  1.8500000000000D+00  0.0000000000000D+00  0.0000000000000D+00
   187  1.8600000000000D+00  0.0000000000000D+00  0.0000000000000D+00
   188  1.8700000000000D+00  0.0000000000000D+00  0.0000000000000D+00
   189  1.8800000000000D+00  0.0000000000000D+00  0.0000000000000D+00
   190  1.8900000000000D+00  0.0000000000000D+00  0.0000000000000D+00
   191  1.9000000000000D+00  0.0000000000000D+00  0.0000000000000D+00
   192  1.9100000000000D+00  0.0000000000000D+00  0.0000000000000D+00
   193  1.9200000000000D+00  0.0000000000000D+00  0.0000000000000D+00
   194  1.9300000000000D+00  0.0000000000000D+00  0.0000000000000D+00
   195  1.9400000000000D+00  0.0000000000000D+00  0.0000000000000D+00
   196  1.9500000000000D+00  0.0000000000000D+00  0.0000000000000D+00
   197  1.9600000000000D+00  0.0000000000000D+00  0.0000000000000D+00
   198  1.9700000000000D+00  0.0000000000000D+00  0.0000000000000D+00
   199  1.9800000000000D+00  0.0000000000000D+00  0.0000000000000D+00
   200  1.9900000000000D+00  0.0000000000000D+00  0.0000000000000D+00
   201  2.0000000000000D+00  0.0000000000000D+00  0.0000000000000D+00
   202  2.0100000000000D+00  0.0000000000000D+00  0.0000000000000D+00
   203  2.0200000000000D+00  0.0000000000000D+00  0.0000000000000D+00
   204  2.0300000000000D+00  0.0000000000000D+00  0.0000000000000D+00
   205  2.0400000000000D+00  0.0000000000000D+00  0.0000000000000D+00
   206  2.0500000000000D+00  0.0000000000000D+00  0.0000000000000D+00
   207  2.0600000000000D+00  0.0000000000000D+00  0.0000000000000D+00
   208  2.0700000000000D+00  0.0000000000000D+00  0.0000000000000D+00
   209  2.0800000000000D+00  0.0000000000000D+00  0.0000000000000D+00
   210  2.0900000000000D+00  0.0000000000000D+00  0.0000000000000D+00
   211  2.1000000000000D+00  0.0000000000000D+00  0.0000000000000D+00
   212  2.1100000000000D+00  0.0000000000000D+00  0.0000000000000D+00
   213  2.1200000000000D+00  0.0000000000000D+00  0.0000000000000D+00
   214  2.1300000000000D+00  0.0000000000000D+00  0.0000000000000D+00
   215  2.1400000000000D+00  0.0000000000000D+00  0.0000000000000D+00
   216  2.1500000000000D+00  0.0000000000000D+00  0.0000000000000D+00
   217  2.1600000000000D+00  0.0000000000000D+00  0.0000000000000D+00
   218  2.1700000000000D+00  0.0000000000000D+00  0.0000000000000D+00
   219  2.1800000000000D+00  0.0000000000000D+00  0.0000000000000D+00
   220  2.1900000000000D+00  0.0000000000000D+00  0.0000000000000D+00
   221  2.2000000000000D+00  0.0000000000000D+00  0.0000000000000D+00
   222  2.2100000000000D+00  0.0000000000000D+00  0.0000000000000D+00
   223  2.2200000000000D+00  0.0000000000000D+00  0.0000000000000D+00
   224  2.2300000000000D+00  0.0000000000000D+00  0.0000000000000D+00
   225  2.2400000000000D+00  0.0000000000000D+00  0.0000000000000D+00
   226  2.2500000000000D+00  0.0000000000000D+00  0.0000000000000D+00
   227  2.2600000000000D+00  0.0000000000000D+00  0.0000000000000D+00
   228  2.2700000000000D+00  0.0000000000000D+00  0.0000000000000D+00
   229  2.2800000000000D+00  0.0000000000000D+00  0.0000000000000D+00
   230  2.2900000000000D+00  0.0000000000000D+00  0.0000000000000D+00
   231  2.3000000000000D+00  0.0000000000000D+00  0.0000000000000D+00
   232  2.3100000000000D+00  0.0000000000000D+00  0.0000000000000D+00
   233  2.3200000000000D+00  0.0000000000000D+00  0.0000000000000D+00
   234  2.3300000000000D+00  0.0000000000000D+00  0.0000000000000D+00
   235  2.3400000000000D+00  0.0000000000000D+00  0.0000000000000D+00
   236  2.3500000000000D+00  0.0000000000000D+00  0.0000000000000D+00
   237  2.3600000000000D+00  0.0000000000000D+00  0.0000000000000D+00
   238  2.3700000000000D+00  0.0000000000000D+00  0.0000000000000D+00
   239  2.3800000000000D+00  0.0000000000000D+00  0.0000000000000D+00
   240  2.3900000000000D+00  0.0000000000000D+00  0.0000000000000D+00
   241  2.4000000000000D+00  0.0000000000000D+00  0.0000000000000D+00
   242  2.4100000000000D+00  0.0000000000000D+00  0.0000000000000D+00
   243  2.4200000000000D+00  0.0000000000000D+00  0.0000000000000D+00
   244  2.4300000000000D+00  0.0000000000000D+00  0.0000000000000D+00
   245  2.4400000000000D+00  0.0000000000000D+00  0.0000000000000D+00
   246  2.4500000000000D+00  0.0000000000000D+00  0.0000000000000D+00
   247  2.4600000000000D+00  0.0000000000000D+00  0.0000000000000D+00
   248  2.4700000000000D+00  0.0000000000000D+00  0.0000000000000D+00
   249  2.4800000000000D+00  0.0000000000000D+00  0.0000000000000D+00
   250  2.4900000000000D+00  0.0000000000000D+00  0.0000000000000D+00
   251  2.5000000000000D+00  0.0000000000000D+00  0.0000000000000D+00
   252  2.5100000000000D+00  0.0000000000000D+00  0.0000000000000D+00
   253  2.5200000000000D+00  0.0000000000000D+00  0.0000000000000D+00
   254  2.5300000000000D+00  0.0000000000000D+00  0.0000000000000D+00
   255  2.5400000000000D+00  0.0000000000000D+00  0.0000000000000D+00
   256  2.5500000000000D+00  0.0000000000000D+00  0.0000000000000D+00
   257  2.5600000000000D+00  0.0000000000000D+00  0.0000000000000D+00
   258  2.5700000000000D+00  0.0000000000000D+00  0.0000000000000D+00
   259  2.5800000000000D+00  0.0000000000000D+00  0.0000000000000D+00
   260  2.5900000000000D+00  0.0000000000000D+00  0.0000000000000D+00
   261  2.6000000000000D+00  0.0000000000000D+00  0.0000000000000D+00
   262  2.6100000000000D+00  0.0000000000000D+00  0.0000000000000D+00
   263  2.6200000000000D+00  0.0000000000000D+00  0.0000000000000D+00
   264  2.6300000000000D+00  0.0000000000000D+00  0.0000000000000D+00
   265  2.6400000000000D+00  0.0000000000000D+00  0.0000000000000D+00
   266  2.6500000000000D+00  0.0000000000000D+00  0.0000000000000D+00
   267  2.6600000000000D+00  0.0000000000000D+00  0.0000000000000D+00
   268  2.6700000000000D+00  0.0000000000000D+00  0.0000000000000D+00
   269  2.6800000000000D+00  0.0000000000000D+00  0.0000000000000D+00
   270  2.6900000000000D+00  0.0000000000000D+00  0.0000000000000D+00
   271  2.7000000000000D+00  0.0000000000000D+00  0.0000000000000D+00
   272  2.7100000000000D+00  0.0000000000000D+00  0.0000000000000D+00
   273  2.7200000000000D+00  0.0000000000000D+00  0.0000000000000D+00
   274  2.7300000000000D+00  0.0000000000000D+00  0.0000000000000D+00
   275  2.7400000000000D+00  0.0000000000000D+00  0.0000000000000D+00
   276  2.7500000000000D+00  0.0000000000000D+00  0.0000000000000D+00
   277  2.7600000000000D+00  0.0000000000000D+00  0.0000000000000D+00
   278  2.7700000000000D+00  0.0000000000000D+00  0.0000000000000D+00
   279  2.7800000000000D+00  0.0000000000000D+00  0.0000000000000D+00
   280  2.7900000000000D+00  0.0000000000000D+00  0.0000000000000D+00
   281  2.8000000000000D+00  0.0000000000000D+00  0.0000000000000D+00
   282  2.8100000000000D+00  0.0000000000000D+00  0.0000000000000D+00
   283  2.8200000000000D+00  0.0000000000000D+00  0.0000000000000D+00
   284  2.8300000000000D+00  0.0000000000000D+00  0.0000000000000D+00
   285  2.8400000000000D+00  0.0000000000000D+00  0.0000000000000D+00
   286  2.8500000000000D+00  0.0000000000000D+00  0.0000000000000D+00
   287  2.8600000000000D+00  0.0000000000000D+00  0.0000000000000D+00
   288  2.8700000000000D+00  0.0000000000000D+00  0.0000000000000D+00
   289  2.8800000000000D+00  0.0000000000000D+00  0.0000000000000D+00
   290  2.8900000000000D+00  0.0000000000000D+00  0.0000000000000D+00
   291  2.9000000000000D+00  0.0000000000000D+00  0.0000000000000D+00
   292  2.9100000000000D+00  0.0000000000000D+00  0.0000000000000D+00
   293  2.9200000000000D+00  0.0000000000000D+00  0.0000000000000D+00
   294  2.9300000000000D+00  0.0000000000000D+00  0.0000000000000D+00
   295  2.9400000000000D+00  0.0000000000000D+00  0.0000000000000D+00
   296  2.9500000000000D+00  0.0000000000000D+00  0.0000000000000D+00
   297  2.9600000000000D+00  0.0000000000000D+00  0.0000000000000D+00
   298  2.9700000000000D+00  0.0000000000000D+00  0.0000000000000D+00
   299  2.9800000000000D+00  0.0000000000000D+00  0.0000000000000D+00
   300  2.9900000000000D+00  0.0000000000000D+00  0.0000000000000D+00
   301  3.0000000000000D+00  0.0000000000000D+00  0.0000000000000D+00
   302  3.0100000000000D+00  0.0000000000000D+00  0.0000000000000D+00
   303  3.0200000000000D+00  0.0000000000000D+00  0.0000000000000D+00
   304  3.0300000000000D+00  0.0000000000000D+00  0.0000000000000D+00
   305  3.0400000000000D+00  0.0000000000000D+00  0.0000000000000D+00
   306  3.0500000000000D+00  0.0000000000000D+00  0.0000000000000D+00
   307  3.0600000000000D+00  0.0000000000000D+00  0.0000000000000D+00
   308  3.0700000000000D+00  0.0000000000000D+00  0.0000000000000D+00
   309  3.0800000000000D+00  0.0000000000000D+00  0.0000000000000D+00
   310  3.0900000000000D+00  0.0000000000000D+00  0.0000000000000D+00
   311  3.1000000000000D+00  0.0000000000000D+00  0.0000000000000D+00
   312  3.1100000000000D+00  0.0000000000000D+00  0.0000000000000D+00
   313  3.1200000000000D+00  0.0000000000000D+00  0.0000000000000D+00
   314  3.1300000000000D+00  0.0000000000000D+00  0.0000000000000D+00
   315  3.1400000000000D+00  0.0000000000000D+00  0.0000000000000D+00
   316  3.1500000000000D+00  0.0000000000000D+00  0.0000000000000D+00
   317  3.1600000000000D+00  0.0000000000000D+00  0.0000000000000D+00
   318  3.1700000000000D+00  0.0000000000000D+00  0.0000000000000D+00
   319  3.1800000000000D+00  0.0000000000000D+00  0.0000000000000D+00
   320  3.1900000000000D+00  0.0000000000000D+00  0.0000000000000D+00
   321  3.2000000000000D+00  0.0000000000000D+00  0.0000000000000D+00
   322  3.2100000000000D+00  0.0000000000000D+00  0.0000000000000D+00
   323  3.2200000000000D+00  0.0000000000000D+00  0.0000000000000D+00
   324  3.2300000000000D+00  0.0000000000000D+00  0.0000000000000D+00
   325  3.2400000000000D+00  0.0000000000000D+00  0.0000000000000D+00
   326  3.2500000000000D+00  0.0000000000000D+00  0.0000000000000D+00
   327  3.2600000000000D+00  0.0000000000000D+00  0.0000000000000D+00
   328  3.2700000000000D+00  0.0000000000000D+00  0.0000000000000D+00
   329  3.2800000000000D+00  0.0000000000000D+00  0.0000000000000D+00
   330  3.2900000000000D+00  0.0000000000000D+00  0.0000000000000D+00
   331  3.3000000000000D+00  0.0000000000000D+00  0.0000000000000D+00
   332  3.3100000000000D+00  0.0000000000000D+00  0.0000000000000D+00
   333  3.3200000000000D+00  0.0000000000000D+00  0.0000000000000D+00
   334  3.3300000000000D+00  0.0000000000000D+00  0.0000000000000D+00
   335  3.3400000000000D+00  0.0000000000000D+00  0.0000000000000D+00
   336  3.3500000000000D+00  0.0000000000000D+00  0.0000000000000D+00
   337  3.3600000000000D+00  0.0000000000000D+00  0.0000000000000D+00
   338  3.3700000000000D+00  0.0000000000000D+00  0.0000000000000D+00
   339  3.3800000000000D+00  0.0000000000000D+00  0.0000000000000D+00
   340  3.3900000000000D+00  0.0000000000000D+00  0.0000000000000D+00
   341  3.4000000000000D+00  0.0000000000000D+00  0.0000000000000D+00
   342  3.4100000000000D+00  0.0000000000000D+00  0.0000000000000D+00
   343  3.4200000000000D+00  0.0000000000000D+00  0.0000000000000D+00
   344  3.4300000000000D+00  0.0000000000000D+00  0.0000000000000D+00
   345  3.4400000000000D+00  0.0000000000000D+00  0.0000000000000D+00
   346  3.4500000000000D+00  0.0000000000000D+00  0.0000000000000D+00
   347  3.4600000000000D+00  0.0000000000000D+00  0.0000000000000D+00
   348  3.4700000000000D+00  0.0000000000000D+00  0.0000000000000D+00
   349  3.4800000000000D+00  0.0000000000000D+00  0.0000000000000D+00
   350  3.4900000000000D+00  0.0000000000000D+00  0.0000000000000D+00
   351  3.5000000000000D+00  0.0000000000000D+00  0.0000000000000D+00
   352  3.5100000000000D+00  0.0000000000000D+00  0.0000000000000D+00
   353  3.5200000000000D+00  0.0000000000000D+00  0.0000000000000D+00
   354  3.5300000000000D+00  0.0000000000000D+00  0.0000000000000D+00
   355  3.5400000000000D+00  0.0000000000000D+00  0.0000000000000D+00
   356  3.5500000000000D+00  0.0000000000000D+00  0.0000000000000D+00
   357  3.5600000000000D+00  0.0000000000000D+00  0.0000000000000D+00
   358  3.5700000000000D+00  0.0000000000000D+00  0.0000000000000D+00
   359  3.5800000000000D+00  0.0000000000000D+00  0.0000000000000D+00
   360  3.5900000000000D+00  0.0000000000000D+00  0.0000000000000D+00
   361  3.6000000000000D+00  0.0000000000000D+00  0.0000000000000D+00
   362  3.6100000000000D+00  0.0000000000000D+00  0.0000000000000D+00
   363  3.6200000000000D+00  0.0000000000000D+00  0.0000000000000D+00
   364  3.6300000000000D+00  0.0000000000000D+00  0.0000000000000D+00
   365  3.6400000000000D+00  0.0000000000000D+00  0.0000000000000D+00
   366  3.6500000000000D+00  0.0000000000000D+00  0.0000000000000D+00
   367  3.6600000000000D+00  0.0000000000000D+00  0.0000000000000D+00
   368  3.6700000000000D+00  0.0000000000000D+00  0.0000000000000D+00
   369  3.6800000000000D+00  0.0000000000000D+00  0.0000000000000D+00
   370  3.6900000000000D+00  0.0000000000000D+00  0.0000000000000D+00
   371  3.7000000000000D+00  0.0000000000000D+00  0.0000000000000D+00
   372  3.7100000000000D+00  0.0000000000000D+00  0.0000000000000D+00
   373  3.7200000000000D+00  0.0000000000000D+00  0.0000000000000D+00
   374  3.7300000000000D+00  0.0000000000000D+00  0.0000000000000D+00
   375  3.7400000000000D+00  0.0000000000000D+00  0.0000000000000D+00
   376  3.7500000000000D+00  0.0000000000000D+00  0.0000000000000D+00
   377  3.7600000000000D+00  0.0000000000000D+00  0.0000000000000D+00
   378  3.7700000000000D+00  0.0000000000000D+00  0.0000000000000D+00
   379  3.7800000000000D+00  0.0000000000000D+00  0.0000000000000D+00
   380  3.7900000000000D+00  0.0000000000000D+00  0.0000000000000D+00
   381  3.8000000000000D+00  0.0000000000000D+00  0.0000000000000D+00
   382  3.8100000000000D+00  0.0000000000000D+00  0.0000000000000D+00
   383  3.8200000000000D+00  0.0000000000000D+00  0.0000000000000D+00
   384  3.8300000000000D+00  0.0000000000000D+00  0.0000000000000D+00
   385  3.8400000000000D+00  0.0000000000000D+00  0.0000000000000D+00
   386  3.8500000000000D+00  0.0000000000000D+00  0.0000000000000D+00
   387  3.8600000000000D+00  0.0000000000000D+00  0.0000000000000D+00
   388  3.8700000000000D+00  0.0000000000000D+00  0.0000000000000D+00
   389  3.8800000000000D+00  0.0000000000000D+00  0.0000000000000D+00
   390  3.8900000000000D+00  0.0000000000000D+00  0.0000000000000D+00
   391  3.9000000000000D+00  0.0000000000000D+00  0.0000000000000D+00
   392  3.9100000000000D+00  0.0000000000000D+00  0.0000000000000D+00
   393  3.9200000000000D+00  0.0000000000000D+00  0.0000000000000D+00
   394  3.9300000000000D+00  0.0000000000000D+00  0.0000000000000D+00
   395  3.9400000000000D+00  0.0000000000000D+00  0.0000000000000D+00
   396  3.9500000000000D+00  0.0000000000000D+00  0.0000000000000D+00
   397  3.9600000000000D+00  0.0000000000000D+00  0.0000000000000D+00
   398  3.9700000000000D+00  0.0000000000000D+00  0.0000000000000D+00
   399  3.9800000000000D+00  0.0000000000000D+00  0.0000000000000D+00
   400  3.9900000000000D+00  0.0000000000000D+00  0.0000000000000D+00
   401  4.0000000000000D+00  0.0000000000000D+00  0.0000000000000D+00
   402  4.0100000000000D+00  0.0000000000000D+00  0.0000000000000D+00
   403  4.0200000000000D+00  0.0000000000000D+00  0.0000000000000D+00
   404  4.0300000000000D+00  0.0000000000000D+00  0.0000000000000D+00
   405  4.0400000000000D+00  0.0000000000000D+00  0.0000000000000D+00
   406  4.0500000000000D+00  0.0000000000000D+00  0.0000000000000D+00
   407  4.0600000000000D+00  0.0000000000000D+00  0.0000000000000D+00
   408  4.0700000000000D+00  0.0000000000000D+00  0.0000000000000D+00
   409  4.0800000000000D+00  0.0000000000000D+00  0.0000000000000D+00
   410  4.0900000000000D+00  0.0000000000000D+00  0.0000000000000D+00
   411  4.1000000000000D+00  0.0000000000000D+00  0.0000000000000D+00
   412  4.1100000000000D+00  0.0000000000000D+00  0.0000000000000D+00
   413  4.1200000000000D+00  0.0000000000000D+00  0.0000000000000D+00
   414  4.1300000000000D+00  0.0000000000000D+00  0.0000000000000D+00
   415  4.1400000000000D+00  0.0000000000000D+00  0.0000000000000D+00
   416  4.1500000000000D+00  0.0000000000000D+00  0.0000000000000D+00
   417  4.1600000000000D+00  0.0000000000000D+00  0.0000000000000D+00
   418  4.1700000000000D+00  0.0000000000000D+00  0.0000000000000D+00
   419  4.1800000000000D+00  0.0000000000000D+00  0.0000000000000D+00
   420  4.1900000000000D+00  0.0000000000000D+00  0.0000000000000D+00
   421  4.2000000000000D+00  0.0000000000000D+00  0.0000000000000D+00
   422  4.2100000000000D+00  0.0000000000000D+00  0.0000000000000D+00