Cd    ONCVPSP-3.3.0  r_core=   1.91042   2.10171   1.71595
     48.0000     12.0000      220408    zatom,zion,pspd
     8       2   2     4   600     0    pspcod,pspxc,lmax,lloc,mmax,r2well
  5.99000000  0.00000000  0.00000000    rchrg fchrg qchrg
     2     2     2     0     0    nproj
     1     1           extension_switch
   0                         1.0669196985876D+01  1.8392692556159D+00
     1  0.0000000000000D+00 -6.1133265116808D-11  7.1749772789786D-11
     2  1.0000000000000D-02  4.5107197142219D-02 -3.0468994020344D-02
     3  2.0000000000000D-02  9.0067181690458D-02 -6.0774290599083D-02
     4  3.0000000000000D-02  1.3473347282458D-01 -9.0753022524539D-02
     5  4.0000000000000D-02  1.7896104971553D-01 -1.2024397896027D-01
     6  5.0000000000000D-02  2.2260707264463D-01 -1.4908842343913D-01
     7  6.0000000000000D-02  2.6553159351456D-01 -1.7713089967570D-01
     8  7.0000000000000D-02  3.0759825228738D-01 -2.0422002122046D-01
     9  8.0000000000000D-02  3.4867495594622D-01 -2.3020924105098D-01
    10  9.0000000000000D-02  3.8863453665297D-01 -2.5495759728427D-01
    11  1.0000000000000D-01  4.2735538586530D-01 -2.7833043130115D-01
    12  1.1000000000000D-01  4.6472206128100D-01 -3.0020007469599D-01
    13  1.2000000000000D-01  5.0062586359654D-01 -3.2044650160521D-01
    14  1.3000000000000D-01  5.3496538019971D-01 -3.3895794312292D-01
    15  1.4000000000000D-01  5.6764699306153D-01 -3.5563146068273D-01
    16  1.5000000000000D-01  5.9858534825115D-01 -3.7037347547033D-01
    17  1.6000000000000D-01  6.2770378466823D-01 -3.8310025113078D-01
    18  1.7000000000000D-01  6.5493471976870D-01 -3.9373832724717D-01
    19  1.8000000000000D-01  6.8021999025366D-01 -4.0222490129278D-01
    20  1.9000000000000D-01  7.0351114589324D-01 -4.0850815699580D-01
    21  2.0000000000000D-01  7.2476969487067D-01 -4.1254753730363D-01
    22  2.1000000000000D-01  7.4396729925275D-01 -4.1431396039156D-01
    23  2.2000000000000D-01  7.6108591942167D-01 -4.1378997742705D-01
    24  2.3000000000000D-01  7.7611790653990D-01 -4.1096987107581D-01
    25  2.4000000000000D-01  7.8906604236137D-01 -4.0585969401641D-01
    26  2.5000000000000D-01  7.9994352594953D-01 -3.9847724701743D-01
    27  2.6000000000000D-01  8.0877390711441D-01 -3.8885199642226D-01
    28  2.7000000000000D-01  8.1559096663528D-01 -3.7702493118110D-01
    29  2.8000000000000D-01  8.2043854359130D-01 -3.6304835986573D-01
    30  2.9000000000000D-01  8.2337031038076D-01 -3.4698564839997D-01
    31  3.0000000000000D-01  8.2444949626609D-01 -3.2891089953477D-01
    32  3.1000000000000D-01  8.2374856053802D-01 -3.0890857539120D-01
    33  3.2000000000000D-01  8.2134881664540D-01 -2.8707306468538D-01
    34  3.3000000000000D-01  8.1734000888681D-01 -2.6350819653538D-01
    35  3.4000000000000D-01  8.1181984350580D-01 -2.3832670303059D-01
    36  3.5000000000000D-01  8.0489347626856D-01 -2.1164963301530D-01
    37  3.6000000000000D-01  7.9667295883664D-01 -1.8360571980295D-01
    38  3.7000000000000D-01  7.8727664646902D-01 -1.5433070578998D-01
    39  3.8000000000000D-01  7.7682856980177D-01 -1.2396662717990D-01
    40  3.9000000000000D-01  7.6545777365662D-01 -9.2661062256689D-02
    41  4.0000000000000D-01  7.5329762602088D-01 -6.0566346861365D-02
    42  4.1000000000000D-01  7.4048510051820D-01 -2.7838760923545D-02
    43  4.2000000000000D-01  7.2716003585524D-01  5.3623099169774D-03
    44  4.3000000000000D-01  7.1346437587681D-01  3.8875233400530D-02
    45  4.4000000000000D-01  6.9954139399543D-01  7.2537006105820D-02
    46  4.5000000000000D-01  6.8553490587745D-01  1.0618414080705D-01
    47  4.6000000000000D-01  6.7158847436574D-01  1.3965356115678D-01
    48  4.7000000000000D-01  6.5784461069787D-01  1.7278349903904D-01
    49  4.8000000000000D-01  6.4444397614023D-01  2.0541438987716D-01
    50  4.9000000000000D-01  6.3152458819716D-01  2.3738976114449D-01
    51  5.0000000000000D-01  6.1922103557512D-01  2.6855710931353D-01
    52  5.1000000000000D-01  6.0766370607999D-01  2.9876876049063D-01
    53  5.2000000000000D-01  5.9697803160271D-01  3.2788271002037D-01
    54  5.3000000000000D-01  5.8728375430607D-01  3.5576343640330D-01
    55  5.4000000000000D-01  5.7869421805642D-01  3.8228268496029D-01
    56  5.5000000000000D-01  5.7131568906029D-01  4.0732021678412D-01
    57  5.6000000000000D-01  5.6524670955279D-01  4.3076451865900D-01
    58  5.7000000000000D-01  5.6057748825705D-01  4.5251346978639D-01
    59  5.8000000000000D-01  5.5738933117973D-01  4.7247496134249D-01
    60  5.9000000000000D-01  5.5575411613626D-01  4.9056746510012D-01
    61  6.0000000000000D-01  5.5573381420569D-01  5.0672054757945D-01
    62  6.1000000000000D-01  5.5738006110322D-01  5.2087532644529D-01
    63  6.2000000000000D-01  5.6073378122722D-01  5.3298486614279D-01
    64  6.3000000000000D-01  5.6582486688794D-01  5.4301451005825D-01
    65  6.4000000000000D-01  5.7267191496111D-01  5.5094214680329D-01
    66  6.5000000000000D-01  5.8128202292543D-01  5.5675840855314D-01
    67  6.6000000000000D-01  5.9165064595157D-01  5.6046679971198D-01
    68  6.7000000000000D-01  6.0376151639764D-01  5.6208375454172D-01
    69  6.8000000000000D-01  6.1758662674721D-01  5.6163862276219D-01
    70  6.9000000000000D-01  6.3308627669817D-01  5.5917358251071D-01
    71  7.0000000000000D-01  6.5020918476944D-01  5.5474348044407D-01
    72  7.1000000000000D-01  6.6889266444820D-01  5.4841559916259D-01
    73  7.2000000000000D-01  6.8906286455284D-01  5.4026935253665D-01
    74  7.3000000000000D-01  7.1063507313068D-01  5.3039590992392D-01
    75  7.4000000000000D-01  7.3351408386005D-01  5.1889775066638D-01
    76  7.5000000000000D-01  7.5759462357017D-01  5.0588815066199D-01
    77  7.6000000000000D-01  7.8276183914482D-01  4.9149060320174D-01
    78  7.7000000000000D-01  8.0889184173088D-01  4.7583817665405D-01
    79  7.8000000000000D-01  8.3585230583424D-01  4.5907281196118D-01
    80  7.9000000000000D-01  8.6350312055931D-01  4.4134456328058D-01
    81  8.0000000000000D-01  8.9169708992746D-01  4.2281078546334D-01
    82  8.1000000000000D-01  9.2028067890915D-01  4.0363527239920D-01
    83  8.2000000000000D-01  9.4909480151125D-01  3.8398735058252D-01
    84  8.3000000000000D-01  9.7797564699137D-01  3.6404093255308D-01
    85  8.4000000000000D-01  1.0067555400147D+00  3.4397353514632D-01
    86  8.5000000000000D-01  1.0352638303356D+00  3.2396526774255D-01
    87  8.6000000000000D-01  1.0633278073765D+00  3.0419779593201D-01
    88  8.7000000000000D-01  1.0907736348831D+00  2.8485328621585D-01
    89  8.8000000000000D-01  1.1174273006801D+00  2.6611333753147D-01
    90  8.9000000000000D-01  1.1431155764040D+00  2.4815790553412D-01
    91  9.0000000000000D-01  1.1676669819906D+00  2.3116422567259D-01
    92  9.1000000000000D-01  1.1909127496047D+00  2.1530574117252D-01
    93  9.2000000000000D-01  1.2126877816542D+00  2.0075104208206D-01
    94  9.3000000000000D-01  1.2328315975050D+00  1.8766282153922D-01
    95  9.4000000000000D-01  1.2511892635234D+00  1.7619685539195D-01
    96  9.5000000000000D-01  1.2676123011123D+00  1.6650101123521D-01
    97  9.6000000000000D-01  1.2819595674766D+00  1.5871429282924D-01
    98  9.7000000000000D-01  1.2940981039587D+00  1.5296592572520D-01
    99  9.8000000000000D-01  1.3039039469119D+00  1.4937448975192D-01
   100  9.9000000000000D-01  1.3112628962480D+00  1.4804710381187D-01
   101  1.0000000000000D+00  1.3160712369868D+00  1.4907866818668D-01
   102  1.0100000000000D+00  1.3182364093548D+00  1.5255116928870D-01
   103  1.0200000000000D+00  1.3176776232310D+00  1.5853305147907D-01
   104  1.0300000000000D+00  1.3143264130221D+00  1.6707866023775D-01
   105  1.0400000000000D+00  1.3081271293414D+00  1.7822776060710D-01
   106  1.0500000000000D+00  1.2990373641979D+00  1.9200513443944D-01
   107  1.0600000000000D+00  1.2870283067689D+00  2.0842025953830D-01
   108  1.0700000000000D+00  1.2720850271527D+00  2.2746707339410D-01
   109  1.0800000000000D+00  1.2542066859444D+00  2.4912382369201D-01
   110  1.0900000000000D+00  1.2334066678463D+00  2.7335300732822D-01
   111  1.1000000000000D+00  1.2097126379581D+00  3.0010139916374D-01
   112  1.1100000000000D+00  1.1831665198386D+00  3.2930017121843D-01
   113  1.1200000000000D+00  1.1538243948122D+00  3.6086510256160D-01
   114  1.1300000000000D+00  1.1217563225326D+00  3.9469687952559D-01
   115  1.1400000000000D+00  1.0870460831977D+00  4.3068148542525D-01
   116  1.1500000000000D+00  1.0497908423312D+00  4.6869067835904D-01
   117  1.1600000000000D+00  1.0101007393773D+00  5.0858255528814D-01
   118  1.1700000000000D+00  9.6809840196494D-01  5.5020219987820D-01
   119  1.1800000000000D+00  9.2391838804775D-01  5.9338241119579D-01
   120  1.1900000000000D+00  8.7770655857210D-01  6.3794450983073D-01
   121  1.2000000000000D+00  8.2961938371704D-01  6.8369921757368D-01
   122  1.2100000000000D+00  7.7982318624778D-01  7.3044760620754D-01
   123  1.2200000000000D+00  7.2849332589186D-01  7.7798211055789D-01
   124  1.2300000000000D+00  6.7581332885717D-01  8.2608760070760D-01
   125  1.2400000000000D+00  6.2197396721658D-01  8.7454250759985D-01
   126  1.2500000000000D+00  5.6717229307661D-01  9.2311999604283D-01
   127  1.2600000000000D+00  5.1161063266029D-01  9.7158917889026D-01
   128  1.2700000000000D+00  4.5549554586920D-01  1.0197163656921D+00
   129  1.2800000000000D+00  3.9903675707744D-01  1.0672663389122D+00
   130  1.2900000000000D+00  3.4244606300270D-01  1.1140036507087D+00
   131  1.3000000000000D+00  2.8593622383494D-01  1.1596939329124D+00
   132  1.3100000000000D+00  2.2971984386901D-01  1.2041052127938D+00
   133  1.3200000000000D+00  1.7400824792700D-01  1.2470092271544D+00
   134  1.3300000000000D+00  1.1901036006507D-01  1.2881827270876D+00
   135  1.3400000000000D+00  6.4931590916723D-02  1.3274087659433D+00
   136  1.3500000000000D+00  1.1972740176739D-02  1.3644779628367D+00
   137  1.3600000000000D+00 -3.9671079432193D-02  1.3991897343130D+00
   138  1.3700000000000D+00 -8.9811490494548D-02  1.4313534869145D+00
   139  1.3800000000000D+00 -1.3826786516811D-01  1.4607897632271D+00
   140  1.3900000000000D+00 -1.8486829968528D-01  1.4873313348523D+00
   141  1.4000000000000D+00 -2.2945054302782D-01  1.5108242352721D+00
   142  1.4100000000000D+00 -2.7186287425945D-01  1.5311287262911D+00
   143  1.4200000000000D+00 -3.1196492355467D-01  1.5481201924030D+00
   144  1.4300000000000D+00 -3.4962843123106D-01  1.5616899565445D+00
   145  1.4400000000000D+00 -3.8473794102424D-01  1.5717460130714D+00
   146  1.4500000000000D+00 -4.1719142254418D-01  1.5782136721934D+00
   147  1.4600000000000D+00 -4.4690081937281D-01  1.5810361119746D+00
   148  1.4700000000000D+00 -4.7379251960732D-01  1.5801748344025D+00
   149  1.4800000000000D+00 -4.9780774479115D-01  1.5756100210092D+00
   150  1.4900000000000D+00 -5.1890285633046D-01  1.5673407873127D+00
   151  1.5000000000000D+00 -5.3704957522243D-01  1.5553853314275D+00
   152  1.5100000000000D+00 -5.5223511548394D-01  1.5397809776580D+00
   153  1.5200000000000D+00 -5.6446222867468D-01  1.5205841123041D+00
   154  1.5300000000000D+00 -5.7374915963105D-01  1.4978700121653D+00
   155  1.5400000000000D+00 -5.8012951348288D-01  1.4717325661632D+00
   156  1.5500000000000D+00 -5.8365203330984D-01  1.4422838896701D+00
   157  1.5600000000000D+00 -5.8438029136813D-01  1.4096538353473D+00
   158  1.5700000000000D+00 -5.8239229251242D-01  1.3739893992239D+00
   159  1.5800000000000D+00 -5.7777999531699D-01  1.3354540288472D+00
   160  1.5900000000000D+00 -5.7064874938595D-01  1.2942268320908D+00
   161  1.6000000000000D+00 -5.6111665578939D-01  1.2505016951202D+00
   162  1.6100000000000D+00 -5.4931385035002D-01  1.2044863095664D+00
   163  1.6200000000000D+00 -5.3538171681914D-01  1.1564011175110D+00
   164  1.6300000000000D+00 -5.1947203151355D-01  1.1064781765016D+00
   165  1.6400000000000D+00 -5.0174604631331D-01  1.0549599530269D+00
   166  1.6500000000000D+00 -4.8237351322817D-01  1.0020980485790D+00
   167  1.6600000000000D+00 -4.6153165718236D-01  9.4815186559527D-01
   168  1.6700000000000D+00 -4.3940410262671D-01  8.9338722485852D-01
   169  1.6800000000000D+00 -4.1617975701751D-01  8.3807492329016D-01
   170  1.6900000000000D+00 -3.9205166707164D-01  7.8248928805733D-01
   171  1.7000000000000D+00 -3.6721584349247D-01  7.2690668919451D-01
   172  1.7100000000000D+00 -3.4187003698682D-01  6.7160388325604D-01
   173  1.7200000000000D+00 -3.1621254774486D-01  6.1685658843303D-01
   174  1.7300000000000D+00 -2.9044107396585D-01  5.6293833612294D-01
   175  1.7400000000000D+00 -2.6475155628258D-01  5.1011923201256D-01
   176  1.7500000000000D+00 -2.3933706841322D-01  4.5866483611457D-01
   177  1.7600000000000D+00 -2.1438670177411D-01  4.0883497033177D-01
   178  1.7700000000000D+00 -1.9008440653837D-01  3.6088217568958D-01
   179  1.7800000000000D+00 -1.6660787930281D-01  3.1505030534151D-01
   180  1.7900000000000D+00 -1.4412749448418D-01  2.7157325326395D-01
   181  1.8000000000000D+00 -1.2280525970285D-01  2.3067364278075D-01
   182  1.8100000000000D+00 -1.0279382215690D-01  1.9256160723057D-01
   183  1.8200000000000D+00 -8.4235518494698D-02  1.5743361596996D-01
   184  1.8300000000000D+00 -6.7261482815344D-02  1.2547137374269D-01
   185  1.8400000000000D+00 -5.1990808910156D-02  9.6840787132072D-02
   186  1.8500000000000D+00 -3.8538851753821D-02  7.1708056030186D-02
   187  1.8600000000000D+00 -2.6980093747890D-02  5.0170369742966D-02
   188  1.8700000000000D+00 -1.7354835111285D-02  3.2269026283247D-02
   189  1.8800000000000D+00 -9.7911182973551D-03  1.8218356463173D-02
   190  1.8900000000000D+00 -4.4753765791814D-03  8.3510430527139D-03
   191  1.9000000000000D+00 -1.3651016039030D-03  2.5795648296709D-03
   192  1.9100000000000D+00  3.0714987043776D-05 -1.6457853784927D-05
   193  1.9200000000000D+00  3.1241834486699D-04 -5.5625811228169D-04
   194  1.9300000000000D+00  9.3836083063761D-05 -1.6921369055107D-04
   195  1.9400000000000D+00 -8.0642432262722D-05  1.4582672815772D-04
   196  1.9500000000000D+00 -6.5109263066827D-05  1.1802843407504D-04
   197  1.9600000000000D+00  8.6422816274577D-06 -1.5539166537797D-05
   198  1.9700000000000D+00  1.6257245599331D-05 -2.9282414416060D-05
   199  1.9800000000000D+00  5.6789836394811D-08 -1.0241806080136D-07
   200  1.9900000000000D+00 -1.6954671414049D-07  2.0251970398487D-07
   201  2.0000000000000D+00 -7.7848810819798D-08  9.2988638575064D-08
   202  2.0100000000000D+00  0.0000000000000D+00  0.0000000000000D+00
   203  2.0200000000000D+00  0.0000000000000D+00  0.0000000000000D+00
   204  2.0300000000000D+00  0.0000000000000D+00  0.0000000000000D+00
   205  2.0400000000000D+00  0.0000000000000D+00  0.0000000000000D+00
   206  2.0500000000000D+00  0.0000000000000D+00  0.0000000000000D+00
   207  2.0600000000000D+00  0.0000000000000D+00  0.0000000000000D+00
   208  2.0700000000000D+00  0.0000000000000D+00  0.0000000000000D+00
   209  2.0800000000000D+00  0.0000000000000D+00  0.0000000000000D+00
   210  2.0900000000000D+00  0.0000000000000D+00  0.0000000000000D+00
   211  2.1000000000000D+00  0.0000000000000D+00  0.0000000000000D+00
   212  2.1100000000000D+00  0.0000000000000D+00  0.0000000000000D+00
   213  2.1200000000000D+00  0.0000000000000D+00  0.0000000000000D+00
   214  2.1300000000000D+00  0.0000000000000D+00  0.0000000000000D+00
   215  2.1400000000000D+00  0.0000000000000D+00  0.0000000000000D+00
   216  2.1500000000000D+00  0.0000000000000D+00  0.0000000000000D+00
   217  2.1600000000000D+00  0.0000000000000D+00  0.0000000000000D+00
   218  2.1700000000000D+00  0.0000000000000D+00  0.0000000000000D+00
   219  2.1800000000000D+00  0.0000000000000D+00  0.0000000000000D+00
   220  2.1900000000000D+00  0.0000000000000D+00  0.0000000000000D+00
   221  2.2000000000000D+00  0.0000000000000D+00  0.0000000000000D+00
   222  2.2100000000000D+00  0.0000000000000D+00  0.0000000000000D+00
   223  2.2200000000000D+00  0.0000000000000D+00  0.0000000000000D+00
   224  2.2300000000000D+00  0.0000000000000D+00  0.0000000000000D+00
   225  2.2400000000000D+00  0.0000000000000D+00  0.0000000000000D+00
   226  2.2500000000000D+00  0.0000000000000D+00  0.0000000000000D+00
   227  2.2600000000000D+00  0.0000000000000D+00  0.0000000000000D+00
   228  2.2700000000000D+00  0.0000000000000D+00  0.0000000000000D+00
   229  2.2800000000000D+00  0.0000000000000D+00  0.0000000000000D+00
   230  2.2900000000000D+00  0.0000000000000D+00  0.0000000000000D+00
   231  2.3000000000000D+00  0.0000000000000D+00  0.0000000000000D+00
   232  2.3100000000000D+00  0.0000000000000D+00  0.0000000000000D+00
   233  2.3200000000000D+00  0.0000000000000D+00  0.0000000000000D+00
   234  2.3300000000000D+00  0.0000000000000D+00  0.0000000000000D+00
   235  2.3400000000000D+00  0.0000000000000D+00  0.0000000000000D+00
   236  2.3500000000000D+00  0.0000000000000D+00  0.0000000000000D+00
   237  2.3600000000000D+00  0.0000000000000D+00  0.0000000000000D+00
   238  2.3700000000000D+00  0.0000000000000D+00  0.0000000000000D+00
   239  2.3800000000000D+00  0.0000000000000D+00  0.0000000000000D+00
   240  2.3900000000000D+00  0.0000000000000D+00  0.0000000000000D+00
   241  2.4000000000000D+00  0.0000000000000D+00  0.0000000000000D+00
   242  2.4100000000000D+00  0.0000000000000D+00  0.0000000000000D+00
   243  2.4200000000000D+00  0.0000000000000D+00  0.0000000000000D+00
   244  2.4300000000000D+00  0.0000000000000D+00  0.0000000000000D+00
   245  2.4400000000000D+00  0.0000000000000D+00  0.0000000000000D+00
   246  2.4500000000000D+00  0.0000000000000D+00  0.0000000000000D+00
   247  2.4600000000000D+00  0.0000000000000D+00  0.0000000000000D+00
   248  2.4700000000000D+00  0.0000000000000D+00  0.0000000000000D+00
   249  2.4800000000000D+00  0.0000000000000D+00  0.0000000000000D+00
   250  2.4900000000000D+00  0.0000000000000D+00  0.0000000000000D+00
   251  2.5000000000000D+00  0.0000000000000D+00  0.0000000000000D+00
   252  2.5100000000000D+00  0.0000000000000D+00  0.0000000000000D+00
   253  2.5200000000000D+00  0.0000000000000D+00  0.0000000000000D+00
   254  2.5300000000000D+00  0.0000000000000D+00  0.0000000000000D+00
   255  2.5400000000000D+00  0.0000000000000D+00  0.0000000000000D+00
   256  2.5500000000000D+00  0.0000000000000D+00  0.0000000000000D+00
   257  2.5600000000000D+00  0.0000000000000D+00  0.0000000000000D+00
   258  2.5700000000000D+00  0.0000000000000D+00  0.0000000000000D+00
   259  2.5800000000000D+00  0.0000000000000D+00  0.0000000000000D+00
   260  2.5900000000000D+00  0.0000000000000D+00  0.0000000000000D+00
   261  2.6000000000000D+00  0.0000000000000D+00  0.0000000000000D+00
   262  2.6100000000000D+00  0.0000000000000D+00  0.0000000000000D+00
   263  2.6200000000000D+00  0.0000000000000D+00  0.0000000000000D+00
   264  2.6300000000000D+00  0.0000000000000D+00  0.0000000000000D+00
   265  2.6400000000000D+00  0.0000000000000D+00  0.0000000000000D+00
   266  2.6500000000000D+00  0.0000000000000D+00  0.0000000000000D+00
   267  2.6600000000000D+00  0.0000000000000D+00  0.0000000000000D+00
   268  2.6700000000000D+00  0.0000000000000D+00  0.0000000000000D+00
   269  2.6800000000000D+00  0.0000000000000D+00  0.0000000000000D+00
   270  2.6900000000000D+00  0.0000000000000D+00  0.0000000000000D+00
   271  2.7000000000000D+00  0.0000000000000D+00  0.0000000000000D+00
   272  2.7100000000000D+00  0.0000000000000D+00  0.0000000000000D+00
   273  2.7200000000000D+00  0.0000000000000D+00  0.0000000000000D+00
   274  2.7300000000000D+00  0.0000000000000D+00  0.0000000000000D+00
   275  2.7400000000000D+00  0.0000000000000D+00  0.0000000000000D+00
   276  2.7500000000000D+00  0.0000000000000D+00  0.0000000000000D+00
   277  2.7600000000000D+00  0.0000000000000D+00  0.0000000000000D+00
   278  2.7700000000000D+00  0.0000000000000D+00  0.0000000000000D+00
   279  2.7800000000000D+00  0.0000000000000D+00  0.0000000000000D+00
   280  2.7900000000000D+00  0.0000000000000D+00  0.0000000000000D+00
   281  2.8000000000000D+00  0.0000000000000D+00  0.0000000000000D+00
   282  2.8100000000000D+00  0.0000000000000D+00  0.0000000000000D+00
   283  2.8200000000000D+00  0.0000000000000D+00  0.0000000000000D+00
   284  2.8300000000000D+00  0.0000000000000D+00  0.0000000000000D+00
   285  2.8400000000000D+00  0.0000000000000D+00  0.0000000000000D+00
   286  2.8500000000000D+00  0.0000000000000D+00  0.0000000000000D+00
   287  2.8600000000000D+00  0.0000000000000D+00  0.0000000000000D+00
   288  2.8700000000000D+00  0.0000000000000D+00  0.0000000000000D+00
   289  2.8800000000000D+00  0.0000000000000D+00  0.0000000000000D+00
   290  2.8900000000000D+00  0.0000000000000D+00  0.0000000000000D+00
   291  2.9000000000000D+00  0.0000000000000D+00  0.0000000000000D+00
   292  2.9100000000000D+00  0.0000000000000D+00  0.0000000000000D+00
   293  2.9200000000000D+00  0.0000000000000D+00  0.0000000000000D+00
   294  2.9300000000000D+00  0.0000000000000D+00  0.0000000000000D+00
   295  2.9400000000000D+00  0.0000000000000D+00  0.0000000000000D+00
   296  2.9500000000000D+00  0.0000000000000D+00  0.0000000000000D+00
   297  2.9600000000000D+00  0.0000000000000D+00  0.0000000000000D+00
   298  2.9700000000000D+00  0.0000000000000D+00  0.0000000000000D+00
   299  2.9800000000000D+00  0.0000000000000D+00  0.0000000000000D+00
   300  2.9900000000000D+00  0.0000000000000D+00  0.0000000000000D+00
   301  3.0000000000000D+00  0.0000000000000D+00  0.0000000000000D+00
   302  3.0100000000000D+00  0.0000000000000D+00  0.0000000000000D+00
   303  3.0200000000000D+00  0.0000000000000D+00  0.0000000000000D+00
   304  3.0300000000000D+00  0.0000000000000D+00  0.0000000000000D+00
   305  3.0400000000000D+00  0.0000000000000D+00  0.0000000000000D+00
   306  3.0500000000000D+00  0.0000000000000D+00  0.0000000000000D+00
   307  3.0600000000000D+00  0.0000000000000D+00  0.0000000000000D+00
   308  3.0700000000000D+00  0.0000000000000D+00  0.0000000000000D+00
   309  3.0800000000000D+00  0.0000000000000D+00  0.0000000000000D+00
   310  3.0900000000000D+00  0.0000000000000D+00  0.0000000000000D+00
   311  3.1000000000000D+00  0.0000000000000D+00  0.0000000000000D+00
   312  3.1100000000000D+00  0.0000000000000D+00  0.0000000000000D+00
   313  3.1200000000000D+00  0.0000000000000D+00  0.0000000000000D+00
   314  3.1300000000000D+00  0.0000000000000D+00  0.0000000000000D+00
   315  3.1400000000000D+00  0.0000000000000D+00  0.0000000000000D+00
   316  3.1500000000000D+00  0.0000000000000D+00  0.0000000000000D+00
   317  3.1600000000000D+00  0.0000000000000D+00  0.0000000000000D+00
   318  3.1700000000000D+00  0.0000000000000D+00  0.0000000000000D+00
   319  3.1800000000000D+00  0.0000000000000D+00  0.0000000000000D+00
   320  3.1900000000000D+00  0.0000000000000D+00  0.0000000000000D+00
   321  3.2000000000000D+00  0.0000000000000D+00  0.0000000000000D+00
   322  3.2100000000000D+00  0.0000000000000D+00  0.0000000000000D+00
   323  3.2200000000000D+00  0.0000000000000D+00  0.0000000000000D+00
   324  3.2300000000000D+00  0.0000000000000D+00  0.0000000000000D+00
   325  3.2400000000000D+00  0.0000000000000D+00  0.0000000000000D+00
   326  3.2500000000000D+00  0.0000000000000D+00  0.0000000000000D+00
   327  3.2600000000000D+00  0.0000000000000D+00  0.0000000000000D+00
   328  3.2700000000000D+00  0.0000000000000D+00  0.0000000000000D+00
   329  3.2800000000000D+00  0.0000000000000D+00  0.0000000000000D+00
   330  3.2900000000000D+00  0.0000000000000D+00  0.0000000000000D+00
   331  3.3000000000000D+00  0.0000000000000D+00  0.0000000000000D+00
   332  3.3100000000000D+00  0.0000000000000D+00  0.0000000000000D+00
   333  3.3200000000000D+00  0.0000000000000D+00  0.0000000000000D+00
   334  3.3300000000000D+00  0.0000000000000D+00  0.0000000000000D+00
   335  3.3400000000000D+00  0.0000000000000D+00  0.0000000000000D+00
   336  3.3500000000000D+00  0.0000000000000D+00  0.0000000000000D+00
   337  3.3600000000000D+00  0.0000000000000D+00  0.0000000000000D+00
   338  3.3700000000000D+00  0.0000000000000D+00  0.0000000000000D+00
   339  3.3800000000000D+00  0.0000000000000D+00  0.0000000000000D+00
   340  3.3900000000000D+00  0.0000000000000D+00  0.0000000000000D+00
   341  3.4000000000000D+00  0.0000000000000D+00  0.0000000000000D+00
   342  3.4100000000000D+00  0.0000000000000D+00  0.0000000000000D+00
   343  3.4200000000000D+00  0.0000000000000D+00  0.0000000000000D+00
   344  3.4300000000000D+00  0.0000000000000D+00  0.0000000000000D+00
   345  3.4400000000000D+00  0.0000000000000D+00  0.0000000000000D+00
   346  3.4500000000000D+00  0.0000000000000D+00  0.0000000000000D+00
   347  3.4600000000000D+00  0.0000000000000D+00  0.0000000000000D+00
   348  3.4700000000000D+00  0.0000000000000D+00  0.0000000000000D+00
   349  3.4800000000000D+00  0.0000000000000D+00  0.0000000000000D+00
   350  3.4900000000000D+00  0.0000000000000D+00  0.0000000000000D+00
   351  3.5000000000000D+00  0.0000000000000D+00  0.0000000000000D+00
   352  3.5100000000000D+00  0.0000000000000D+00  0.0000000000000D+00
   353  3.5200000000000D+00  0.0000000000000D+00  0.0000000000000D+00
   354  3.5300000000000D+00  0.0000000000000D+00  0.0000000000000D+00
   355  3.5400000000000D+00  0.0000000000000D+00  0.0000000000000D+00
   356  3.5500000000000D+00  0.0000000000000D+00  0.0000000000000D+00
   357  3.5600000000000D+00  0.0000000000000D+00  0.0000000000000D+00
   358  3.5700000000000D+00  0.0000000000000D+00  0.0000000000000D+00
   359  3.5800000000000D+00  0.0000000000000D+00  0.0000000000000D+00
   360  3.5900000000000D+00  0.0000000000000D+00  0.0000000000000D+00
   361  3.6000000000000D+00  0.0000000000000D+00  0.0000000000000D+00
   362  3.6100000000000D+00  0.0000000000000D+00  0.0000000000000D+00
   363  3.6200000000000D+00  0.0000000000000D+00  0.0000000000000D+00
   364  3.6300000000000D+00  0.0000000000000D+00  0.0000000000000D+00
   365  3.6400000000000D+00  0.0000000000000D+00  0.0000000000000D+00
   366  3.6500000000000D+00  0.0000000000000D+00  0.0000000000000D+00
   367  3.6600000000000D+00  0.0000000000000D+00  0.0000000000000D+00
   368  3.6700000000000D+00  0.0000000000000D+00  0.0000000000000D+00
   369  3.6800000000000D+00  0.0000000000000D+00  0.0000000000000D+00
   370  3.6900000000000D+00  0.0000000000000D+00  0.0000000000000D+00
   371  3.7000000000000D+00  0.0000000000000D+00  0.0000000000000D+00
   372  3.7100000000000D+00  0.0000000000000D+00  0.0000000000000D+00
   373  3.7200000000000D+00  0.0000000000000D+00  0.0000000000000D+00
   374  3.7300000000000D+00  0.0000000000000D+00  0.0000000000000D+00
   375  3.7400000000000D+00  0.0000000000000D+00  0.0000000000000D+00
   376  3.7500000000000D+00  0.0000000000000D+00  0.0000000000000D+00
   377  3.7600000000000D+00  0.0000000000000D+00  0.0000000000000D+00
   378  3.7700000000000D+00  0.0000000000000D+00  0.0000000000000D+00
   379  3.7800000000000D+00  0.0000000000000D+00  0.0000000000000D+00
   380  3.7900000000000D+00  0.0000000000000D+00  0.0000000000000D+00
   381  3.8000000000000D+00  0.0000000000000D+00  0.0000000000000D+00
   382  3.8100000000000D+00  0.0000000000000D+00  0.0000000000000D+00
   383  3.8200000000000D+00  0.0000000000000D+00  0.0000000000000D+00
   384  3.8300000000000D+00  0.0000000000000D+00  0.0000000000000D+00
   385  3.8400000000000D+00  0.0000000000000D+00  0.0000000000000D+00
   386  3.8500000000000D+00  0.0000000000000D+00  0.0000000000000D+00
   387  3.8600000000000D+00  0.0000000000000D+00  0.0000000000000D+00
   388  3.8700000000000D+00  0.0000000000000D+00  0.0000000000000D+00
   389  3.8800000000000D+00  0.0000000000000D+00  0.0000000000000D+00
   390  3.8900000000000D+00  0.0000000000000D+00  0.0000000000000D+00
   391  3.9000000000000D+00  0.0000000000000D+00  0.0000000000000D+00
   392  3.9100000000000D+00  0.0000000000000D+00  0.0000000000000D+00
   393  3.9200000000000D+00  0.0000000000000D+00  0.0000000000000D+00
   394  3.9300000000000D+00  0.0000000000000D+00  0.0000000000000D+00
   395  3.9400000000000D+00  0.0000000000000D+00  0.0000000000000D+00
   396  3.9500000000000D+00  0.0000000000000D+00  0.0000000000000D+00
   397  3.9600000000000D+00  0.0000000000000D+00  0.0000000000000D+00
   398  3.9700000000000D+00  0.0000000000000D+00  0.0000000000000D+00
   399  3.9800000000000D+00  0.0000000000000D+00  0.0000000000000D+00
   400  3.9900000000000D+00  0.0000000000000D+00  0.0000000000000D+00
   401  4.0000000000000D+00  0.0000000000000D+00  0.0000000000000D+00
   402  4.0100000000000D+00  0.0000000000000D+00  0.0000000000000D+00
   403  4.0200000000000D+00  0.0000000000000D+00  0.0000000000000D+00
   404  4.0300000000000D+00  0.0000000000000D+00  0.0000000000000D+00
   405  4.0400000000000D+00  0.0000000000000D+00  0.0000000000000D+00
   406  4.0500000000000D+00  0.0000000000000D+00  0.0000000000000D+00
   407  4.0600000000000D+00  0.0000000000000D+00  0.0000000000000D+00
   408  4.0700000000000D+00  0.0000000000000D+00  0.0000000000000D+00
   409  4.0800000000000D+00  0.0000000000000D+00  0.0000000000000D+00
   410  4.0900000000000D+00  0.0000000000000D+00  0.0000000000000D+00
   411  4.1000000000000D+00  0.0000000000000D+00  0.0000000000000D+00
   412  4.1100000000000D+00  0.0000000000000D+00  0.0000000000000D+00
   413  4.1200000000000D+00  0.0000000000000D+00  0.0000000000000D+00
   414  4.1300000000000D+00  0.0000000000000D+00  0.0000000000000D+00
   415  4.1400000000000D+00  0.0000000000000D+00  0.0000000000000D+00
   416  4.1500000000000D+00  0.0000000000000D+00  0.0000000000000D+00
   417  4.1600000000000D+00  0.0000000000000D+00  0.0000000000000D+00
   418  4.1700000000000D+00  0.0000000000000D+00  0.0000000000000D+00
   419  4.1800000000000D+00  0.0000000000000D+00  0.0000000000000D+00
   420  4.1900000000000D+00  0.0000000000000D+00  0.0000000000000D+00
   421  4.2000000000000D+00  0.0000000000000D+00  0.0000000000000D+00
   422  4.2100000000000D+00  0.0000000000000D+00  0.0000000000000D+00