H     ONCVPSP-3.3.0  r_core=   1.00957   0.70586
      1.0000      1.0000      220408    zatom,zion,pspd
     8       2   1     4   300     0    pspcod,pspxc,lmax,lloc,mmax,r2well
  2.99000000  0.00000000  0.00000000    rchrg fchrg qchrg
     2     1     0     0     0    nproj
     1     1           extension_switch
   0                        -1.6652325920157D+00 -5.1943354453416D-01
     1  0.0000000000000D+00  3.2971792796044D-08 -5.2692430307921D-08
     2  1.0000000000000D-02  3.9038322099751D-02  1.0213320043095D-01
     3  2.0000000000000D-02  7.8932713703732D-02  2.0253952366824D-01
     4  3.0000000000000D-02  1.2051690267000D-01  2.9952780058186D-01
     5  4.0000000000000D-02  1.6458038382199D-01  3.9147756750510D-01
     6  5.0000000000000D-02  2.1184741942834D-01  4.7687265613446D-01
     7  6.0000000000000D-02  2.6295735603049D-01  5.5433270648538D-01
     8  7.0000000000000D-02  3.1844665680695D-01  6.2264197388913D-01
     9  8.0000000000000D-02  3.7873301569151D-01  6.8077485370807D-01
    10  9.0000000000000D-02  4.4410187943357D-01  7.2791761139116D-01
    11  1.0000000000000D-01  5.1469565746089D-01  7.6348587946024D-01
    12  1.1000000000000D-01  5.9050584765580D-01  7.8713756558984D-01
    13  1.2000000000000D-01  6.7136824996577D-01  7.9878090553288D-01
    14  1.3000000000000D-01  7.5696138020529D-01  7.9857748952582D-01
    15  1.4000000000000D-01  8.4680813459887D-01  7.8694018915294D-01
    16  1.5000000000000D-01  9.4028069273895D-01  7.6452601156420D-01
    17  1.6000000000000D-01  1.0366085838858D+00  7.3222400749155D-01
    18  1.7000000000000D-01  1.1348897801126D+00  6.9113845677204D-01
    19  1.8000000000000D-01  1.2341046208743D+00  6.4256764817108D-01
    20  1.9000000000000D-01  1.3331323182735D+00  5.8797865740244D-01
    21  2.0000000000000D-01  1.4307697416810D+00  5.2897860665701D-01
    22  2.1000000000000D-01  1.5257521354022D+00  4.6728295913292D-01
    23  2.2000000000000D-01  1.6167753846462D+00  4.0468146161962D-01
    24  2.3000000000000D-01  1.7025194138794D+00  3.4300239595268D-01
    25  2.4000000000000D-01  1.7816722783520D+00  2.8407583516919D-01
    26  2.5000000000000D-01  1.8529544946270D+00  2.2969662174378D-01
    27  2.6000000000000D-01  1.9151431496154D+00  1.8158779292348D-01
    28  2.7000000000000D-01  1.9670953300681D+00  1.4136517171802D-01
    29  2.8000000000000D-01  2.0077704256682D+00  1.1050382163049D-01
    30  2.9000000000000D-01  2.0362508786005D+00  9.0307029090880D-02
    31  3.0000000000000D-01  2.0517609803934D+00  8.1878430407461D-02
    32  3.1000000000000D-01  2.0536833524106D+00  8.6097840759043D-02
    33  3.2000000000000D-01  2.0415727889506D+00  1.0360127243393D-01
    34  3.3000000000000D-01  2.0151671906839D+00  1.3476554951694D-01
    35  3.4000000000000D-01  1.9743953702020D+00  1.7969783806862D-01
    36  3.5000000000000D-01  1.9193815697397D+00  2.3823031621976D-01
    37  3.6000000000000D-01  1.8504465925444D+00  3.0992010935807D-01
    38  3.7000000000000D-01  1.7681055127436D+00  3.9405451362931D-01
    39  3.8000000000000D-01  1.6730619926669D+00  4.8966142830704D-01
    40  3.9000000000000D-01  1.5661993001995D+00  5.9552481620377D-01
    41  4.0000000000000D-01  1.4485681806379D+00  7.1020491320536D-01
    42  4.1000000000000D-01  1.3213717964953D+00  8.3206281513478D-01
    43  4.2000000000000D-01  1.1859480036169D+00  9.5928898433877D-01
    44  4.3000000000000D-01  1.0437492817510D+00  1.0899351413551D+00
    45  4.4000000000000D-01  8.9632068139626D-01  1.2219489403017D+00
    46  4.5000000000000D-01  7.4527618547109D-01  1.3532107715859D+00
    47  4.6000000000000D-01  5.9227391338400D-01  1.4815719932876D+00
    48  4.7000000000000D-01  4.3899061586734D-01  1.6048938640124D+00
    49  4.8000000000000D-01  2.8709592104046D-01  1.7210864357437D+00
    50  4.9000000000000D-01  1.3822679534876D-01  1.8281466655973D+00
    51  5.0000000000000D-01 -6.0373227884583D-03  1.9241950204359D+00
    52  5.1000000000000D-01 -1.4419827350661D-01  2.0075098778013D+00
    53  5.2000000000000D-01 -2.7486139043406D-01  2.0765590700639D+00
    54  5.3000000000000D-01 -3.9675579178316D-01  2.1300279752015D+00
    55  5.4000000000000D-01 -5.0875239844685D-01  2.1668436262370D+00
    56  5.5000000000000D-01 -6.0987937591512D-01  2.1861943907615D+00
    57  5.6000000000000D-01 -6.9933474860319D-01  2.1875448603938D+00
    58  5.7000000000000D-01 -7.7649599213178D-01  2.1706456863600D+00
    59  5.8000000000000D-01 -8.4092646954080D-01  2.1355381987914D+00
    60  5.9000000000000D-01 -8.9237864091590D-01  2.0825537530885D+00
    61  6.0000000000000D-01 -9.3079404034200D-01  2.0123078532544D+00
    62  6.1000000000000D-01 -9.5630007924769D-01  1.9256892090556D+00
    63  6.2000000000000D-01 -9.6920379859445D-01  1.8238439871654D+00
    64  6.3000000000000D-01 -9.6998275404895D-01  1.7081556161171D+00
    65  6.4000000000000D-01 -9.5927327589369D-01  1.5802205971085D+00
    66  6.5000000000000D-01 -9.3785639857569D-01  1.4418208567667D+00
    67  6.6000000000000D-01 -9.0664180230931D-01  1.2948932520308D+00
    68  6.7000000000000D-01 -8.6665014978561D-01  1.1414968993280D+00
    69  6.8000000000000D-01 -8.1899423439455D-01  9.8377904959297D-01
    70  6.9000000000000D-01 -7.6485938345584D-01  8.2394027044986D-01
    71  7.0000000000000D-01 -7.0548354240623D-01  6.6419963225823D-01
    72  7.1000000000000D-01 -6.4213768568322D-01  5.0676113695814D-01
    73  7.2000000000000D-01 -5.7610309578490D-01  3.5377231399047D-01
    74  7.3000000000000D-01 -5.0864014701878D-01  2.0726307574193D-01
    75  7.4000000000000D-01 -4.4096176024352D-01  6.9099282154785D-02
    76  7.5000000000000D-01 -3.7421305178007D-01 -5.9047754573538D-02
    77  7.6000000000000D-01 -3.0945271870797D-01 -1.7572831697995D-01
    78  7.7000000000000D-01 -2.4763668088549D-01 -2.7973683709154D-01
    79  7.8000000000000D-01 -1.8960420371211D-01 -3.7012968136096D-01
    80  7.9000000000000D-01 -1.3606672460979D-01 -4.4623783907952D-01
    81  8.0000000000000D-01 -8.7599549110459D-02 -5.0767428996392D-01
    82  8.1000000000000D-01 -4.4636522640082D-02 -5.5433593204838D-01
    83  8.2000000000000D-01 -7.4677232117943D-03 -5.8640005718384D-01
    84  8.3000000000000D-01  2.3759841077231D-02 -6.0431546777308D-01
    85  8.4000000000000D-01  4.9038606381683D-02 -6.0878843276608D-01
    86  8.5000000000000D-01  6.8494034455690D-02 -6.0076378136615D-01
    87  8.6000000000000D-01  8.2375591585715D-02 -5.8140152739097D-01
    88  8.7000000000000D-01  9.1045366837044D-02 -5.5204950395122D-01
    89  8.8000000000000D-01  9.4964617248304D-02 -5.1421256535656D-01
    90  8.9000000000000D-01  9.4678567368784D-02 -4.6951897943004D-01
    91  9.0000000000000D-01  9.0799823373111D-02 -4.1968468741362D-01
    92  9.1000000000000D-01  8.3990787270548D-02 -3.6647614932650D-01
    93  9.2000000000000D-01  7.4945473970616D-02 -3.1167251920371D-01
    94  9.3000000000000D-01  6.4371142851593D-02 -2.5702790657890D-01
    95  9.4000000000000D-01  5.2970155848999D-02 -2.0423447765344D-01
    96  9.5000000000000D-01  4.1422466030302D-02 -1.5488713201161D-01
    97  9.6000000000000D-01  3.0369123788712D-02 -1.1045045784671D-01
    98  9.7000000000000D-01  2.0397164227786D-02 -7.2228624218742D-02
    99  9.8000000000000D-01  1.2031599898409D-02 -4.1354825733787D-02
   100  9.9000000000000D-01  5.6664159080457D-03 -1.8601774925461D-02
   101  1.0000000000000D+00  1.8254938524721D-03 -5.1260508992430D-03
   102  1.0100000000000D+00  4.4613112711088D-04 -4.9673615261001D-04
   103  1.0200000000000D+00  2.6960845862791D-05  3.2782135183992D-05
   104  1.0300000000000D+00 -1.2857844172620D-05 -3.8296746471814D-05
   105  1.0400000000000D+00  5.7611062012730D-06  5.5375776357164D-06
   106  1.0500000000000D+00 -1.1432585180980D-06  1.3832129245819D-06
   107  1.0600000000000D+00  0.0000000000000D+00  0.0000000000000D+00
   108  1.0700000000000D+00  0.0000000000000D+00  0.0000000000000D+00
   109  1.0800000000000D+00  0.0000000000000D+00  0.0000000000000D+00
   110  1.0900000000000D+00  0.0000000000000D+00  0.0000000000000D+00
   111  1.1000000000000D+00  0.0000000000000D+00  0.0000000000000D+00
   112  1.1100000000000D+00  0.0000000000000D+00  0.0000000000000D+00
   113  1.1200000000000D+00  0.0000000000000D+00  0.0000000000000D+00
   114  1.1300000000000D+00  0.0000000000000D+00  0.0000000000000D+00
   115  1.1400000000000D+00  0.0000000000000D+00  0.0000000000000D+00
   116  1.1500000000000D+00  0.0000000000000D+00  0.0000000000000D+00
   117  1.1600000000000D+00  0.0000000000000D+00  0.0000000000000D+00
   118  1.1700000000000D+00  0.0000000000000D+00  0.0000000000000D+00
   119  1.1800000000000D+00  0.0000000000000D+00  0.0000000000000D+00
   120  1.1900000000000D+00  0.0000000000000D+00  0.0000000000000D+00
   121  1.2000000000000D+00  0.0000000000000D+00  0.0000000000000D+00
   122  1.2100000000000D+00  0.0000000000000D+00  0.0000000000000D+00
   123  1.2200000000000D+00  0.0000000000000D+00  0.0000000000000D+00
   124  1.2300000000000D+00  0.0000000000000D+00  0.0000000000000D+00
   125  1.2400000000000D+00  0.0000000000000D+00  0.0000000000000D+00
   126  1.2500000000000D+00  0.0000000000000D+00  0.0000000000000D+00
   127  1.2600000000000D+00  0.0000000000000D+00  0.0000000000000D+00
   128  1.2700000000000D+00  0.0000000000000D+00  0.0000000000000D+00
   129  1.2800000000000D+00  0.0000000000000D+00  0.0000000000000D+00
   130  1.2900000000000D+00  0.0000000000000D+00  0.0000000000000D+00
   131  1.3000000000000D+00  0.0000000000000D+00  0.0000000000000D+00
   132  1.3100000000000D+00  0.0000000000000D+00  0.0000000000000D+00
   133  1.3200000000000D+00  0.0000000000000D+00  0.0000000000000D+00
   134  1.3300000000000D+00  0.0000000000000D+00  0.0000000000000D+00
   135  1.3400000000000D+00  0.0000000000000D+00  0.0000000000000D+00
   136  1.3500000000000D+00  0.0000000000000D+00  0.0000000000000D+00
   137  1.3600000000000D+00  0.0000000000000D+00  0.0000000000000D+00
   138  1.3700000000000D+00  0.0000000000000D+00  0.0000000000000D+00
   139  1.3800000000000D+00  0.0000000000000D+00  0.0000000000000D+00
   140  1.3900000000000D+00  0.0000000000000D+00  0.0000000000000D+00
   141  1.4000000000000D+00  0.0000000000000D+00  0.0000000000000D+00
   142  1.4100000000000D+00  0.0000000000000D+00  0.0000000000000D+00
   143  1.4200000000000D+00  0.0000000000000D+00  0.0000000000000D+00
   144  1.4300000000000D+00  0.0000000000000D+00  0.0000000000000D+00
   145  1.4400000000000D+00  0.0000000000000D+00  0.0000000000000D+00
   146  1.4500000000000D+00  0.0000000000000D+00  0.0000000000000D+00
   147  1.4600000000000D+00  0.0000000000000D+00  0.0000000000000D+00
   148  1.4700000000000D+00  0.0000000000000D+00  0.0000000000000D+00
   149  1.4800000000000D+00  0.0000000000000D+00  0.0000000000000D+00
   150  1.4900000000000D+00  0.0000000000000D+00  0.0000000000000D+00
   151  1.5000000000000D+00  0.0000000000000D+00  0.0000000000000D+00
   152  1.5100000000000D+00  0.0000000000000D+00  0.0000000000000D+00
   153  1.5200000000000D+00  0.0000000000000D+00  0.0000000000000D+00
   154  1.5300000000000D+00  0.0000000000000D+00  0.0000000000000D+00
   155  1.5400000000000D+00  0.0000000000000D+00  0.0000000000000D+00
   156  1.5500000000000D+00  0.0000000000000D+00  0.0000000000000D+00
   157  1.5600000000000D+00  0.0000000000000D+00  0.0000000000000D+00
   158  1.5700000000000D+00  0.0000000000000D+00  0.0000000000000D+00
   159  1.5800000000000D+00  0.0000000000000D+00  0.0000000000000D+00
   160  1.5900000000000D+00  0.0000000000000D+00  0.0000000000000D+00
   161  1.6000000000000D+00  0.0000000000000D+00  0.0000000000000D+00
   162  1.6100000000000D+00  0.0000000000000D+00  0.0000000000000D+00
   163  1.6200000000000D+00  0.0000000000000D+00  0.0000000000000D+00
   164  1.6300000000000D+00  0.0000000000000D+00  0.0000000000000D+00
   165  1.6400000000000D+00  0.0000000000000D+00  0.0000000000000D+00
   166  1.6500000000000D+00  0.0000000000000D+00  0.0000000000000D+00
   167  1.6600000000000D+00  0.0000000000000D+00  0.0000000000000D+00
   168  1.6700000000000D+00  0.0000000000000D+00  0.0000000000000D+00
   169  1.6800000000000D+00  0.0000000000000D+00  0.0000000000000D+00
   170  1.6900000000000D+00  0.0000000000000D+00  0.0000000000000D+00
   171  1.7000000000000D+00  0.0000000000000D+00  0.0000000000000D+00
   172  1.7100000000000D+00  0.0000000000000D+00  0.0000000000000D+00
   173  1.7200000000000D+00  0.0000000000000D+00  0.0000000000000D+00
   174  1.7300000000000D+00  0.0000000000000D+00  0.0000000000000D+00
   175  1.7400000000000D+00  0.0000000000000D+00  0.0000000000000D+00
   176  1.7500000000000D+00  0.0000000000000D+00  0.0000000000000D+00
   177  1.7600000000000D+00  0.0000000000000D+00  0.0000000000000D+00
   178  1.7700000000000D+00  0.0000000000000D+00  0.0000000000000D+00
   179  1.7800000000000D+00  0.0000000000000D+00  0.0000000000000D+00
   180  1.7900000000000D+00  0.0000000000000D+00  0.0000000000000D+00
   181  1.8000000000000D+00  0.0000000000000D+00  0.0000000000000D+00
   182  1.8100000000000D+00  0.0000000000000D+00  0.0000000000000D+00
   183  1.8200000000000D+00  0.0000000000000D+00  0.0000000000000D+00
   184  1.8300000000000D+00  0.0000000000000D+00  0.0000000000000D+00
   185  1.8400000000000D+00  0.0000000000000D+00  0.0000000000000D+00
   186  1.8500000000000D+00  0.0000000000000D+00  0.0000000000000D+00
   187  1.8600000000000D+00  0.0000000000000D+00  0.0000000000000D+00
   188  1.8700000000000D+00  0.0000000000000D+00  0.0000000000000D+00
   189  1.8800000000000D+00  0.0000000000000D+00  0.0000000000000D+00
   190  1.8900000000000D+00  0.0000000000000D+00  0.0000000000000D+00
   191  1.9000000000000D+00  0.0000000000000D+00  0.0000000000000D+00
   192  1.9100000000000D+00  0.0000000000000D+00  0.0000000000000D+00
   193  1.9200000000000D+00  0.0000000000000D+00  0.0000000000000D+00
   194  1.9300000000000D+00  0.0000000000000D+00  0.0000000000000D+00
   195  1.9400000000000D+00  0.0000000000000D+00  0.0000000000000D+00
   196  1.9500000000000D+00  0.0000000000000D+00  0.0000000000000D+00
   197  1.9600000000000D+00  0.0000000000000D+00  0.0000000000000D+00
   198  1.9700000000000D+00  0.0000000000000D+00  0.0000000000000D+00
   199  1.9800000000000D+00  0.0000000000000D+00  0.0000000000000D+00
   200  1.9900000000000D+00  0.0000000000000D+00  0.0000000000000D+00
   201  2.0000000000000D+00  0.0000000000000D+00  0.0000000000000D+00
   202  2.0100000000000D+00  0.0000000000000D+00  0.0000000000000D+00
   203  2.0200000000000D+00  0.0000000000000D+00  0.0000000000000D+00
   204  2.0300000000000D+00  0.0000000000000D+00  0.0000000000000D+00
   205  2.0400000000000D+00  0.0000000000000D+00  0.0000000000000D+00
   206  2.0500000000000D+00  0.0000000000000D+00  0.0000000000000D+00
   207  2.0600000000000D+00  0.0000000000000D+00  0.0000000000000D+00
   208  2.0700000000000D+00  0.0000000000000D+00  0.0000000000000D+00
   209  2.0800000000000D+00  0.0000000000000D+00  0.0000000000000D+00
   210  2.0900000000000D+00  0.0000000000000D+00  0.0000000000000D+00
   211  2.1000000000000D+00  0.0000000000000D+00  0.0000000000000D+00
   212  2.1100000000000D+00  0.0000000000000D+00  0.0000000000000D+00
   213  2.1200000000000D+00  0.0000000000000D+00  0.0000000000000D+00
   214  2.1300000000000D+00  0.0000000000000D+00  0.0000000000000D+00
   215  2.1400000000000D+00  0.0000000000000D+00  0.0000000000000D+00
   216  2.1500000000000D+00  0.0000000000000D+00  0.0000000000000D+00
   217  2.1600000000000D+00  0.0000000000000D+00  0.0000000000000D+00
   218  2.1700000000000D+00  0.0000000000000D+00  0.0000000000000D+00
   219  2.1800000000000D+00  0.0000000000000D+00  0.0000000000000D+00
   220  2.1900000000000D+00  0.0000000000000D+00  0.0000000000000D+00
   221  2.2000000000000D+00  0.0000000000000D+00  0.0000000000000D+00
   222  2.2100000000000D+00  0.0000000000000D+00  0.0000000000000D+00
   223  2.2200000000000D+00  0.0000000000000D+00  0.0000000000000D+00
   224  2.2300000000000D+00  0.0000000000000D+00  0.0000000000000D+00
   225  2.2400000000000D+00  0.0000000000000D+00  0.0000000000000D+00
   226  2.2500000000000D+00  0.0000000000000D+00  0.0000000000000D+00
   227  2.2600000000000D+00  0.0000000000000D+00  0.0000000000000D+00
   228  2.2700000000000D+00  0.0000000000000D+00  0.0000000000000D+00
   229  2.2800000000000D+00  0.0000000000000D+00  0.0000000000000D+00
   230  2.2900000000000D+00  0.0000000000000D+00  0.0000000000000D+00
   231  2.3000000000000D+00  0.0000000000000D+00  0.0000000000000D+00
   232  2.3100000000000D+00  0.0000000000000D+00  0.0000000000000D+00
   233  2.3200000000000D+00  0.0000000000000D+00  0.0000000000000D+00
   234  2.3300000000000D+00  0.0000000000000D+00  0.0000000000000D+00
   235  2.3400000000000D+00  0.0000000000000D+00  0.0000000000000D+00
   236  2.3500000000000D+00  0.0000000000000D+00  0.0000000000000D+00
   237  2.3600000000000D+00  0.0000000000000D+00  0.0000000000000D+00
   238  2.3700000000000D+00  0.0000000000000D+00  0.0000000000000D+00
   239  2.3800000000000D+00  0.0000000000000D+00  0.0000000000000D+00
   240  2.3900000000000D+00  0.0000000000000D+00  0.0000000000000D+00
   241  2.4000000000000D+00  0.0000000000000D+00  0.0000000000000D+00
   242  2.4100000000000D+00  0.0000000000000D+00  0.0000000000000D+00
   243  2.4200000000000D+00  0.0000000000000D+00  0.0000000000000D+00
   244  2.4300000000000D+00  0.0000000000000D+00  0.0000000000000D+00
   245  2.4400000000000D+00  0.0000000000000D+00  0.0000000000000D+00
   246  2.4500000000000D+00  0.0000000000000D+00  0.0000000000000D+00
   247  2.4600000000000D+00  0.0000000000000D+00  0.0000000000000D+00
   248  2.4700000000000D+00  0.0000000000000D+00  0.0000000000000D+00
   249  2.4800000000000D+00  0.0000000000000D+00  0.0000000000000D+00
   250  2.4900000000000D+00  0.0000000000000D+00  0.0000000000000D+00
   251  2.5000000000000D+00  0.0000000000000D+00  0.0000000000000D+00
   252  2.5100000000000D+00  0.0000000000000D+00  0.0000000000000D+00
   253  2.5200000000000D+00  0.0000000000000D+00  0.0000000000000D+00
   254  2.5300000000000D+00  0.0000000000000D+00  0.0000000000000D+00
   255  2.5400000000000D+00  0.0000000000000D+00  0.0000000000000D+00
   256  2.5500000000000D+00  0.0000000000000D+00  0.0000000000000D+00
   257  2.5600000000000D+00  0.0000000000000D+00  0.0000000000000D+00
   258  2.5700000000000D+00  0.0000000000000D+00  0.0000000000000D+00
   259  2.5800000000000D+00  0.0000000000000D+00  0.0000000000000D+00
   260  2.5900000000000D+00  0.0000000000000D+00  0.0000000000000D+00
   261  2.6000000000000D+00  0.0000000000000D+00  0.0000000000000D+00
   262  2.6100000000000D+00  0.0000000000000D+00  0.0000000000000D+00
   263  2.6200000000000D+00  0.0000000000000D+00  0.0000000000000D+00
   264  2.6300000000000D+00  0.0000000000000D+00  0.0000000000000D+00
   265  2.6400000000000D+00  0.0000000000000D+00  0.0000000000000D+00
   266  2.6500000000000D+00  0.0000000000000D+00  0.0000000000000D+00
   267  2.6600000000000D+00  0.0000000000000D+00  0.0000000000000D+00
   268  2.6700000000000D+00  0.0000000000000D+00  0.0000000000000D+00
   269  2.6800000000000D+00  0.0000000000000D+00  0.0000000000000D+00
   270  2.6900000000000D+00  0.0000000000000D+00  0.0000000000000D+00
   271  2.7000000000000D+00  0.0000000000000D+00  0.0000000000000D+00
   272  2.7100000000000D+00  0.0000000000000D+00  0.0000000000000D+00
   273  2.7200000000000D+00  0.0000000000000D+00  0.0000000000000D+00
   274  2.7300000000000D+00  0.0000000000000D+00  0.0000000000000D+00
   275  2.7400000000000D+00  0.0000000000000D+00  0.0000000000000D+00
   276  2.7500000000000D+00  0.0000000000000D+00  0.0000000000000D+00
   277  2.7600000000000D+00  0.0000000000000D+00  0.0000000000000D+00
   278  2.7700000000000D+00  0.0000000000000D+00  0.0000000000000D+00
   279  2.7800000000000D+00  0.0000000000000D+00  0.0000000000000D+00
   280  2.7900000000000D+00  0.0000000000000D+00  0.0000000000000D+00
   281  2.8000000000000D+00  0.0000000000000D+00  0.0000000000000D+00
   282  2.8100000000000D+00  0.0000000000000D+00  0.0000000000000D+00
   283  2.8200000000000D+00  0.0000000000000D+00  0.0000000000000D+00
   284  2.8300000000000D+00  0.0000000000000D+00  0.0000000000000D+00
   285  2.8400000000000D+00  0.0000000000000D+00  0.0000000000000D+00
   286  2.8500000000000D+00  0.0000000000000D+00  0.0000000000000D+00
   287  2.8600000000000D+00  0.0000000000000D+00  0.0000000000000D+00
   288  2.8700000000000D+00  0.0000000000000D+00  0.0000000000000D+00
   289  2.8800000000000D+00  0.0000000000000D+00  0.0000000000000D+00
   290  2.8900000000000D+00  0.0000000000000D+00  0.0000000000000D+00
   291  2.9000000000000D+00  0.0000000000000D+00  0.0000000000000D+00
   292  2.9100000000000D+00  0.0000000000000D+00  0.0000000000000D+00
   293  2.9200000000000D+00  0.0000000000000D+00  0.0000000000000D+00
   294  2.9300000000000D+00  0.0000000000000D+00  0.0000000000000D+00
   295  2.9400000000000D+00  0.0000000000000D+00  0.0000000000000D+00
   296  2.9500000000000D+00  0.0000000000000D+00  0.0000000000000D+00
   297  2.9600000000000D+00  0.0000000000000D+00  0.0000000000000D+00
   298  2.9700000000000D+00  0.0000000000000D+00  0.0000000000000D+00
   299  2.9800000000000D+00  0.0000000000000D+00  0.0000000000000D+00
   300  2.9900000000000D+00  0.0000000000000D+00  0.0000000000000D+00
   1                        -4.9359266641345D-01
     1  0.0000000000000D+00 -1.1314150104025D-06
     2  1.0000000000000D-02 -9.3100830750334D-03
     3  2.0000000000000D-02 -3.6881397553433D-02
     4  3.0000000000000D-02 -8.1654993897371D-02
     5  4.0000000000000D-02 -1.4192456458522D-01
     6  5.0000000000000D-02 -2.1542122657666D-01
     7  6.0000000000000D-02 -2.9942611795336D-01
     8  7.0000000000000D-02 -3.9090507835779D-01
     9  8.0000000000000D-02 -4.8665855143737D-01
    10  9.0000000000000D-02 -5.8347906068094D-01
    11  1.0000000000000D-01 -6.7830820785884D-01
    12  1.1000000000000D-01 -7.6838514673620D-01
    13  1.2000000000000D-01 -8.5137889467032D-01
    14  1.3000000000000D-01 -9.2549764177093D-01
    15  1.4000000000000D-01 -9.8956936284210D-01
    16  1.5000000000000D-01 -1.0430894752468D+00
    17  1.6000000000000D-01 -1.0862329453523D+00
    18  1.7000000000000D-01 -1.1198300452791D+00
    19  1.8000000000000D-01 -1.1453068110148D+00
    20  1.9000000000000D-01 -1.1645930604363D+00
    21  2.0000000000000D-01 -1.1800025049579D+00
    22  2.1000000000000D-01 -1.1940909470945D+00
    23  2.2000000000000D-01 -1.2094997242227D+00
    24  2.3000000000000D-01 -1.2287923762698D+00
    25  2.4000000000000D-01 -1.2542929390328D+00
    26  2.5000000000000D-01 -1.2879342715934D+00
    27  2.6000000000000D-01 -1.3311244125933D+00
    28  2.7000000000000D-01 -1.3846381434277D+00
    29  2.8000000000000D-01 -1.4485397541612D+00
    30  2.9000000000000D-01 -1.5221415158058D+00
    31  3.0000000000000D-01 -1.6040006318356D+00
    32  3.1000000000000D-01 -1.6919555558828D+00
    33  3.2000000000000D-01 -1.7832006131138D+00
    34  3.3000000000000D-01 -1.8743959451729D+00
    35  3.4000000000000D-01 -1.9618080073055D+00
    36  3.5000000000000D-01 -2.0414742701865D+00
    37  3.6000000000000D-01 -2.1093844972179D+00
    38  3.7000000000000D-01 -2.1616700457547D+00
    39  3.8000000000000D-01 -2.1947921260755D+00
    40  3.9000000000000D-01 -2.2057198735557D+00
    41  4.0000000000000D-01 -2.1920894550406D+00
    42  4.1000000000000D-01 -2.1523362259226D+00
    43  4.2000000000000D-01 -2.0857931451030D+00
    44  4.3000000000000D-01 -1.9927501864756D+00
    45  4.4000000000000D-01 -1.8744712867294D+00
    46  4.5000000000000D-01 -1.7331673553876D+00
    47  4.6000000000000D-01 -1.5719259498687D+00
    48  4.7000000000000D-01 -1.3946002867371D+00
    49  4.8000000000000D-01 -1.2056622207725D+00
    50  4.9000000000000D-01 -1.0100255809374D+00
    51  5.0000000000000D-01 -8.1284772120329D-01
    52  5.1000000000000D-01 -6.1931825212480D-01
    53  5.2000000000000D-01 -4.3444461001771D-01
    54  5.3000000000000D-01 -2.6284435945611D-01
    55  5.4000000000000D-01 -1.0855389710631D-01
    56  5.5000000000000D-01  2.5137463257695D-02
    57  5.6000000000000D-01  1.3582015778919D-01
    58  5.7000000000000D-01  2.2205742320882D-01
    59  5.8000000000000D-01  2.8343416025676D-01
    60  5.9000000000000D-01  3.2055907456064D-01
    61  6.0000000000000D-01  3.3501970953682D-01
    62  6.1000000000000D-01  3.2929218231357D-01
    63  6.2000000000000D-01  3.0660953345753D-01
    64  6.3000000000000D-01  2.7079454592176D-01
    65  6.4000000000000D-01  2.2606454820546D-01
    66  6.5000000000000D-01  1.7681703602804D-01
    67  6.6000000000000D-01  1.2740585349442D-01
    68  6.7000000000000D-01  8.1918120475976D-02
    69  6.8000000000000D-01  4.3962065354691D-02
    70  6.9000000000000D-01  1.6463047417623D-02
    71  7.0000000000000D-01  1.6598207272233D-03
    72  7.1000000000000D-01 -6.6545365049455D-04
    73  7.2000000000000D-01  1.3013505325606D-04
    74  7.3000000000000D-01 -1.6839747857195D-05
    75  7.4000000000000D-01  2.8557234978262D-07
    76  7.5000000000000D-01  0.0000000000000D+00
    77  7.6000000000000D-01  0.0000000000000D+00
    78  7.7000000000000D-01  0.0000000000000D+00
    79  7.8000000000000D-01  0.0000000000000D+00
    80  7.9000000000000D-01  0.0000000000000D+00
    81  8.0000000000000D-01  0.0000000000000D+00
    82  8.1000000000000D-01  0.0000000000000D+00
    83  8.2000000000000D-01  0.0000000000000D+00
    84  8.3000000000000D-01  0.0000000000000D+00
    85  8.4000000000000D-01  0.0000000000000D+00
    86  8.5000000000000D-01  0.0000000000000D+00
    87  8.6000000000000D-01  0.0000000000000D+00
    88  8.7000000000000D-01  0.0000000000000D+00
    89  8.8000000000000D-01  0.0000000000000D+00
    90  8.9000000000000D-01  0.0000000000000D+00
    91  9.0000000000000D-01  0.0000000000000D+00
    92  9.1000000000000D-01  0.0000000000000D+00
    93  9.2000000000000D-01  0.0000000000000D+00
    94  9.3000000000000D-01  0.0000000000000D+00
    95  9.4000000000000D-01  0.0000000000000D+00
    96  9.5000000000000D-01  0.0000000000000D+00
    97  9.6000000000000D-01  0.0000000000000D+00
    98  9.7000000000000D-01  0.0000000000000D+00
    99  9.8000000000000D-01  0.0000000000000D+00
   100  9.9000000000000D-01  0.0000000000000D+00
   101  1.0000000000000D+00  0.0000000000000D+00
   102  1.0100000000000D+00  0.0000000000000D+00
   103  1.0200000000000D+00  0.0000000000000D+00
   104  1.0300000000000D+00  0.0000000000000D+00
   105  1.0400000000000D+00  0.0000000000000D+00
   106  1.0500000000000D+00  0.0000000000000D+00
   107  1.0600000000000D+00  0.0000000000000D+00
   108  1.0700000000000D+00  0.0000000000000D+00
   109  1.0800000000000D+00  0.0000000000000D+00
   110  1.0900000000000D+00  0.0000000000000D+00
   111  1.1000000000000D+00  0.0000000000000D+00
   112  1.1100000000000D+00  0.0000000000000D+00
   113  1.1200000000000D+00  0.0000000000000D+00
   114  1.1300000000000D+00  0.0000000000000D+00
   115  1.1400000000000D+00  0.0000000000000D+00
   116  1.1500000000000D+00  0.0000000000000D+00
   117  1.1600000000000D+00  0.0000000000000D+00
   118  1.1700000000000D+00  0.0000000000000D+00
   119  1.1800000000000D+00  0.0000000000000D+00
   120  1.1900000000000D+00  0.0000000000000D+00
   121  1.2000000000000D+00  0.0000000000000D+00
   122  1.2100000000000D+00  0.0000000000000D+00
   123  1.2200000000000D+00  0.0000000000000D+00
   124  1.2300000000000D+00  0.0000000000000D+00
   125  1.2400000000000D+00  0.0000000000000D+00
   126  1.2500000000000D+00  0.0000000000000D+00
   127  1.2600000000000D+00  0.0000000000000D+00
   128  1.2700000000000D+00  0.0000000000000D+00
   129  1.2800000000000D+00  0.0000000000000D+00
   130  1.2900000000000D+00  0.0000000000000D+00
   131  1.3000000000000D+00  0.0000000000000D+00
   132  1.3100000000000D+00  0.0000000000000D+00
   133  1.3200000000000D+00  0.0000000000000D+00
   134  1.3300000000000D+00  0.0000000000000D+00
   135  1.3400000000000D+00  0.0000000000000D+00
   136  1.3500000000000D+00  0.0000000000000D+00
   137  1.3600000000000D+00  0.0000000000000D+00
   138  1.3700000000000D+00  0.0000000000000D+00
   139  1.3800000000000D+00  0.0000000000000D+00
   140  1.3900000000000D+00  0.0000000000000D+00
   141  1.4000000000000D+00  0.0000000000000D+00
   142  1.4100000000000D+00  0.0000000000000D+00
   143  1.4200000000000D+00  0.0000000000000D+00
   144  1.4300000000000D+00  0.0000000000000D+00
   145  1.4400000000000D+00  0.0000000000000D+00
   146  1.4500000000000D+00  0.0000000000000D+00
   147  1.4600000000000D+00  0.0000000000000D+00
   148  1.4700000000000D+00  0.0000000000000D+00
   149  1.4800000000000D+00  0.0000000000000D+00
   150  1.4900000000000D+00  0.0000000000000D+00
   151  1.5000000000000D+00  0.0000000000000D+00
   152  1.5100000000000D+00  0.0000000000000D+00
   153  1.5200000000000D+00  0.0000000000000D+00
   154  1.5300000000000D+00  0.0000000000000D+00
   155  1.5400000000000D+00  0.0000000000000D+00
   156  1.5500000000000D+00  0.0000000000000D+00
   157  1.5600000000000D+00  0.0000000000000D+00
   158  1.5700000000000D+00  0.0000000000000D+00
   159  1.5800000000000D+00  0.0000000000000D+00
   160  1.5900000000000D+00  0.0000000000000D+00
   161  1.6000000000000D+00  0.0000000000000D+00
   162  1.6100000000000D+00  0.0000000000000D+00
   163  1.6200000000000D+00  0.0000000000000D+00
   164  1.6300000000000D+00  0.0000000000000D+00
   165  1.6400000000000D+00  0.0000000000000D+00
   166  1.6500000000000D+00  0.0000000000000D+00
   167  1.6600000000000D+00  0.0000000000000D+00
   168  1.6700000000000D+00  0.0000000000000D+00
   169  1.6800000000000D+00  0.0000000000000D+00
   170  1.6900000000000D+00  0.0000000000000D+00
   171  1.7000000000000D+00  0.0000000000000D+00
   172  1.7100000000000D+00  0.0000000000000D+00
   173  1.7200000000000D+00  0.0000000000000D+00
   174  1.7300000000000D+00  0.0000000000000D+00