Tl    ONCVPSP-3.3.0  r_core=   2.10510   2.60929   2.00701
     81.0000     13.0000      220408    zatom,zion,pspd
     8       2   2     4   600     0    pspcod,pspxc,lmax,lloc,mmax,r2well
  5.99000000  0.00000000  0.00000000    rchrg fchrg qchrg
     2     2     2     0     0    nproj
     1     1           extension_switch
   0                         6.2894538096687D+00  9.0832005727846D-01
     1  0.0000000000000D+00 -7.6089690104197D-12 -3.7466141300513D-12
     2  1.0000000000000D-02  1.6954800645004D-02  3.6285181541648D-03
     3  2.0000000000000D-02  3.3896727159058D-02  7.2247646214338D-03
     4  3.0000000000000D-02  5.0812981271496D-02  1.0756586674905D-02
     5  4.0000000000000D-02  6.7690916006212D-02  1.4192069161948D-02
     6  5.0000000000000D-02  8.4518110265795D-02  1.7499652427983D-02
     7  6.0000000000000D-02  1.0128244214527D-01  2.0648249206911D-02
     8  7.0000000000000D-02  1.1797216056091D-01  2.3607360138172D-02
     9  8.0000000000000D-02  1.3457595478706D-01  2.6347187574183D-02
    10  9.0000000000000D-02  1.5108302150370D-01  2.8838747346649D-02
    11  1.0000000000000D-01  1.6748312896817D-01  3.1053978165805D-02
    12  1.1000000000000D-01  1.8376667793823D-01  3.2965848333207D-02
    13  1.2000000000000D-01  1.9992475898766D-01  3.4548459456032D-02
    14  1.3000000000000D-01  2.1594920587263D-01  3.5777146859070D-02
    15  1.4000000000000D-01  2.3183264462481D-01  3.6628576399712D-02
    16  1.5000000000000D-01  2.4756853806677D-01  3.7080837400968D-02
    17  1.6000000000000D-01  2.6315122546645D-01  3.7113531428322D-02
    18  1.7000000000000D-01  2.7857595706988D-01  3.6707856647405D-02
    19  1.8000000000000D-01  2.9383892327486D-01  3.5846687511732D-02
    20  1.9000000000000D-01  3.0893727823382D-01  3.4514649542236D-02
    21  2.0000000000000D-01  3.2386915769957D-01  3.2698188973895D-02
    22  2.1000000000000D-01  3.3863369095530D-01  3.0385637058580D-02
    23  2.2000000000000D-01  3.5323100669797D-01  2.7567268827712D-02
    24  2.3000000000000D-01  3.6766223277320D-01  2.4235356133391D-02
    25  2.4000000000000D-01  3.8192948968929D-01  2.0384214802151D-02
    26  2.5000000000000D-01  3.9603587786824D-01  1.6010245751124D-02
    27  2.6000000000000D-01  4.0998545862215D-01  1.1111969933094D-02
    28  2.7000000000000D-01  4.2378322887442D-01  5.6900569930279D-03
    29  2.8000000000000D-01  4.3743508967625D-01 -2.5265246409699D-04
    30  2.9000000000000D-01  4.5094780860031D-01 -6.7111310774188D-03
    31  3.0000000000000D-01  4.6432897612444D-01 -1.3678155472184D-02
    32  3.1000000000000D-01  4.7758695614950D-01 -2.1144303588005D-02
    33  3.2000000000000D-01  4.9073083082596D-01 -2.9097958624409D-02
    34  3.3000000000000D-01  5.0377033989431D-01 -3.7525319616819D-02
    35  3.4000000000000D-01  5.1671581477374D-01 -4.6410418638766D-02
    36  3.5000000000000D-01  5.2957810766286D-01 -5.5735144608460D-02
    37  3.6000000000000D-01  5.4236851594391D-01 -6.5479273660211D-02
    38  3.7000000000000D-01  5.5509870220944D-01 -7.5620506024071D-02
    39  3.8000000000000D-01  5.6778061025626D-01 -8.6134509339682D-02
    40  3.9000000000000D-01  5.8042637741608D-01 -9.6994968313247D-02
    41  4.0000000000000D-01  5.9304824361605D-01 -1.0817364061010D-01
    42  4.1000000000000D-01  6.0565845758406D-01 -1.1964041885848D-01
    43  4.2000000000000D-01  6.1826918063406D-01 -1.3136339862410D-01
    44  4.3000000000000D-01  6.3089238848536D-01 -1.4330895219963D-01
    45  4.4000000000000D-01  6.4353977158662D-01 -1.5544180803721D-01
    46  4.5000000000000D-01  6.5622263443018D-01 -1.6772513563752D-01
    47  4.6000000000000D-01  6.6895179435533D-01 -1.8012063569465D-01
    48  4.7000000000000D-01  6.8173748034964D-01 -1.9258863528105D-01
    49  4.8000000000000D-01  6.9458923236659D-01 -2.0508818784464D-01
    50  4.9000000000000D-01  7.0751580168362D-01 -2.1757717777596D-01
    51  5.0000000000000D-01  7.2052505282907D-01 -2.3001242929163D-01
    52  5.1000000000000D-01  7.3362386760812D-01 -2.4234981936829D-01
    53  5.2000000000000D-01  7.4681805175702D-01 -2.5454439444985D-01
    54  5.3000000000000D-01  7.6011224475195D-01 -2.6655049064078D-01
    55  5.4000000000000D-01  7.7350983329296D-01 -2.7832185708761D-01
    56  5.5000000000000D-01  7.8701286897552D-01 -2.8981178224224D-01
    57  5.6000000000000D-01  8.0062199065145D-01 -3.0097322269162D-01
    58  5.7000000000000D-01  8.1433635196795D-01 -3.1175893423073D-01
    59  5.8000000000000D-01  8.2815355455791D-01 -3.2212160484873D-01
    60  5.9000000000000D-01  8.4206958733650D-01 -3.3201398929153D-01
    61  6.0000000000000D-01  8.5607877233874D-01 -3.4138904485857D-01
    62  6.1000000000000D-01  8.7017371750992D-01 -3.5020006808662D-01
    63  6.2000000000000D-01  8.8434527683561D-01 -3.5840083196938D-01
    64  6.3000000000000D-01  8.9858251817079D-01 -3.6594572335787D-01
    65  6.4000000000000D-01  9.1287269909812D-01 -3.7278988018480D-01
    66  6.5000000000000D-01  9.2720125111381D-01 -3.7888932815323D-01
    67  6.6000000000000D-01  9.4155177240640D-01 -3.8420111652971D-01
    68  6.7000000000000D-01  9.5590602945837D-01 -3.8868345268152D-01
    69  6.8000000000000D-01  9.7024396766350D-01 -3.9229583499759D-01
    70  6.9000000000000D-01  9.8454373111470D-01 -3.9499918383525D-01
    71  7.0000000000000D-01  9.9878169167706D-01 -3.9675597013566D-01
    72  7.1000000000000D-01  1.0129324874198D+00 -3.9753034135486D-01
    73  7.2000000000000D-01  1.0269690704387D+00 -3.9728824436014D-01
    74  7.3000000000000D-01  1.0408627640574D+00 -3.9599754494677D-01
    75  7.4000000000000D-01  1.0545833293523D+00 -3.9362814363458D-01
    76  7.5000000000000D-01  1.0680990409021D+00 -3.9015208741047D-01
    77  7.6000000000000D-01  1.0813767716166D+00 -3.8554367708981D-01
    78  7.7000000000000D-01  1.0943820864576D+00 -3.7977956997666D-01
    79  7.8000000000000D-01  1.1070793448161D+00 -3.7283887751196D-01
    80  7.9000000000000D-01  1.1194318112705D+00 -3.6470325760737D-01
    81  8.0000000000000D-01  1.1314017744015D+00 -3.5535700137258D-01
    82  8.1000000000000D-01  1.1429506733003D+00 -3.4478711395437D-01
    83  8.2000000000000D-01  1.1540392313618D+00 -3.3298338921745D-01
    84  8.3000000000000D-01  1.1646275969150D+00 -3.1993847800875D-01
    85  8.4000000000000D-01  1.1746754902021D+00 -3.0564794975981D-01
    86  8.5000000000000D-01  1.1841423561794D+00 -2.9011034719576D-01
    87  8.6000000000000D-01  1.1929875225774D+00 -2.7332723393283D-01
    88  8.7000000000000D-01  1.2011703626221D+00 -2.5530323476214D-01
    89  8.8000000000000D-01  1.2086504617882D+00 -2.3604606843216D-01
    90  8.9000000000000D-01  1.2153877879229D+00 -2.1556657275894D-01
    91  9.0000000000000D-01  1.2213428640542D+00 -1.9387872190997D-01
    92  9.1000000000000D-01  1.2264769431690D+00 -1.7099963572434D-01
    93  9.2000000000000D-01  1.2307521842295D+00 -1.4694958095064D-01
    94  9.3000000000000D-01  1.2341318286710D+00 -1.2175196430184D-01
    95  9.4000000000000D-01  1.2365803766144D+00 -9.5433317245687D-02
    96  9.5000000000000D-01  1.2380637620099D+00 -6.8023272468434D-02
    97  9.6000000000000D-01  1.2385495259210D+00 -3.9554531970035D-02
    98  9.7000000000000D-01  1.2380069871517D+00 -1.0062826768839D-02
    99  9.8000000000000D-01  1.2364074094184D+00  2.0413131785274D-02
   100  9.9000000000000D-01  1.2337241642678D+00  5.1831709068814D-02
   101  1.0000000000000D+00  1.2299328889492D+00  8.4148412572953D-02
   102  1.0100000000000D+00  1.2250116384566D+00  1.1731596555839D-01
   103  1.0200000000000D+00  1.2189410309707D+00  1.5128438889199D-01
   104  1.0300000000000D+00  1.2117043859454D+00  1.8600109095811D-01
   105  1.0400000000000D+00  1.2032878541037D+00  2.2141096551551D-01
   106  1.0500000000000D+00  1.1936805386345D+00  2.5745649734773D-01
   107  1.0600000000000D+00  1.1828746069042D+00  2.9407787553372D-01
   108  1.0700000000000D+00  1.1708653920323D+00  3.3121311414254D-01
   109  1.0800000000000D+00  1.1576514837137D+00  3.6879818013343D-01
   110  1.0900000000000D+00  1.1432348077052D+00  4.0676712822153D-01
   111  1.1000000000000D+00  1.1276206934429D+00  4.4505224244572D-01
   112  1.1100000000000D+00  1.1108179292881D+00  4.8358418415719D-01
   113  1.1200000000000D+00  1.0928388049607D+00  5.2229214612208D-01
   114  1.1300000000000D+00  1.0736991407587D+00  5.6110401241294D-01
   115  1.1400000000000D+00  1.0534183032231D+00  5.9994652374219D-01
   116  1.1500000000000D+00  1.0320192069528D+00  6.3874544787306D-01
   117  1.1600000000000D+00  1.0095283023387D+00  6.7742575472222D-01
   118  1.1700000000000D+00  9.8597554904146D-01  7.1591179574999D-01
   119  1.1800000000000D+00  9.6139437510784D-01  7.5412748721535D-01
   120  1.1900000000000D+00  9.3582162165716D-01  7.9199649686059D-01
   121  1.2000000000000D+00  9.0929747316153D-01  8.2944243356786D-01
   122  1.2100000000000D+00  8.8186537339503D-01  8.6638903951783D-01
   123  1.2200000000000D+00  8.5357192718926D-01  9.0276038436668D-01
   124  1.2300000000000D+00  8.2446678819125D-01  9.3848106094555D-01
   125  1.2400000000000D+00  7.9460253290612D-01  9.7347638197018D-01
   126  1.2500000000000D+00  7.6403452136024D-01  1.0076725772413D+00
   127  1.2600000000000D+00  7.3282074475714D-01  1.0409969908083D+00
   128  1.2700000000000D+00  7.0102166061237D-01  1.0733782775553D+00
   129  1.2800000000000D+00  6.6870001589041D-01  1.1047465986642D+00
   130  1.2900000000000D+00  6.3592065869066D-01  1.1350338154088D+00
   131  1.3000000000000D+00  6.0275033915941D-01  1.1641736807191D+00
   132  1.3100000000000D+00  5.6925750031622D-01  1.1921020279652D+00
   133  1.3200000000000D+00  5.3551205951193D-01  1.2187569563982D+00
   134  1.3300000000000D+00  5.0158518136090D-01  1.2440790126933D+00
   135  1.3400000000000D+00  4.6754904297148D-01  1.2680113680418D+00
   136  1.3500000000000D+00  4.3347659235331D-01  1.2904999902359D+00
   137  1.3600000000000D+00  3.9944130097106D-01  1.3114938102090D+00
   138  1.3700000000000D+00  3.6551691137371D-01  1.3309448824876D+00
   139  1.3800000000000D+00  3.3177718092139D-01  1.3488085390238D+00
   140  1.3900000000000D+00  2.9829562265187D-01  1.3650435359076D+00
   141  1.4000000000000D+00  2.6514524430684D-01  1.3796121924241D+00
   142  1.4100000000000D+00  2.3239828663521D-01  1.3924805219940D+00
   143  1.4200000000000D+00  2.0012596203324D-01  1.4036183545083D+00
   144  1.4300000000000D+00  1.6839819464235D-01  1.4129994495872D+00
   145  1.4400000000000D+00  1.3728336299871D-01  1.4206016003677D+00
   146  1.4500000000000D+00  1.0684804635774D-01  1.4264067273362D+00
   147  1.4600000000000D+00  7.7156775782997D-02  1.4304009618811D+00
   148  1.4700000000000D+00  4.8271791101683D-02  1.4325747191448D+00
   149  1.4800000000000D+00  2.0252804821652D-02  1.4329227598416D+00
   150  1.4900000000000D+00 -6.8432259784279D-03  1.4314442407589D+00
   151  1.5000000000000D+00 -3.2962318650720D-02  1.4281427535646D+00
   152  1.5100000000000D+00 -5.8053674011429D-02  1.4230263517924D+00
   153  1.5200000000000D+00 -8.2069874247584D-02  1.4161075656163D+00
   154  1.5300000000000D+00 -1.0496706894872D-01  1.4074034043722D+00
   155  1.5400000000000D+00 -1.2670514821895D-01  1.3969353465382D+00
   156  1.5500000000000D+00 -1.4724790211451D-01  1.3847293171177D+00
   157  1.5600000000000D+00 -1.6656316560595D-01  1.3708156523096D+00
   158  1.5700000000000D+00 -1.8462294823976D-01  1.3552290513656D+00
   159  1.5800000000000D+00 -2.0140354802010D-01  1.3380085157122D+00
   160  1.5900000000000D+00 -2.1688564857913D-01  1.3191972751828D+00
   161  1.6000000000000D+00 -2.3105439953349D-01  1.2988427016425D+00
   162  1.6100000000000D+00 -2.4389947897110D-01  1.2769962097943D+00
   163  1.6200000000000D+00 -2.5541513837072D-01  1.2537131456490D+00
   164  1.6300000000000D+00 -2.6560022880552D-01  1.2290526624170D+00
   165  1.6400000000000D+00 -2.7445820905508D-01  1.2030775844469D+00
   166  1.6500000000000D+00 -2.8199713455265D-01  1.1758542590239D+00
   167  1.6600000000000D+00 -2.8822962796056D-01  1.1474523967127D+00
   168  1.6700000000000D+00 -2.9317283047275D-01  1.1179449001561D+00
   169  1.6800000000000D+00 -2.9684833479024D-01  1.0874076820644D+00
   170  1.6900000000000D+00 -2.9928209902564D-01  1.0559194723938D+00
   171  1.7000000000000D+00 -3.0050434266691D-01  1.0235616155081D+00
   172  1.7100000000000D+00 -3.0054942397460D-01  9.9041785739038D-01
   173  1.7200000000000D+00 -2.9945570016941D-01  9.5657412377355D-01
   174  1.7300000000000D+00 -2.9726536985004D-01  9.2211828929999D-01
   175  1.7400000000000D+00 -2.9402429926960D-01  8.8713993866597D-01
   176  1.7500000000000D+00 -2.8978183192130D-01  8.5173011988629D-01
   177  1.7600000000000D+00 -2.8459058336595D-01  8.1598109072352D-01
   178  1.7700000000000D+00 -2.7850622073160D-01  7.7998605843710D-01
   179  1.7800000000000D+00 -2.7158722908955D-01  7.4383891396142D-01
   180  1.7900000000000D+00 -2.6389466420392D-01  7.0763396072363D-01
   181  1.8000000000000D+00 -2.5549189390933D-01  6.7146563919213D-01
   182  1.8100000000000D+00 -2.4644432795991D-01  6.3542824751211D-01
   183  1.8200000000000D+00 -2.3681913834844D-01  5.9961565920330D-01
   184  1.8300000000000D+00 -2.2668497046876D-01  5.6412103846564D-01
   185  1.8400000000000D+00 -2.1611164674593D-01  5.2903655393214D-01
   186  1.8500000000000D+00 -2.0516986364762D-01  4.9445309157574D-01
   187  1.8600000000000D+00 -1.9393088333500D-01  4.6045996750968D-01
   188  1.8700000000000D+00 -1.8246622129463D-01  4.2714464146672D-01
   189  1.8800000000000D+00 -1.7084733098760D-01  3.9459243169158D-01
   190  1.8900000000000D+00 -1.5914528702000D-01  3.6288623196776D-01
   191  1.9000000000000D+00 -1.4743046794269D-01  3.3210623164960D-01
   192  1.9100000000000D+00 -1.3577223996780D-01  3.0232963920669D-01
   193  1.9200000000000D+00 -1.2423864307454D-01  2.7363041035630D-01
   194  1.9300000000000D+00 -1.1289608040799D-01  2.4607898111591D-01
   195  1.9400000000000D+00 -1.0180901232781D-01  2.1974200513285D-01
   196  1.9500000000000D+00 -9.1039657553813D-02  1.9468210376076D-01
   197  1.9600000000000D+00 -8.0647700888255D-02  1.7095762045228D-01
   198  1.9700000000000D+00 -7.0690000758804D-02  1.4862233836533D-01
   199  1.9800000000000D+00 -6.1220342339124D-02  1.2772538636819D-01
   200  1.9900000000000D+00 -5.2289148372038D-02  1.0831089914135D-01
   201  2.0000000000000D+00 -4.3943191189364D-02  9.0417608333052D-02
   202  2.0100000000000D+00 -3.6225412541558D-02  7.4078950014908D-02
   203  2.0200000000000D+00 -2.9174770561564D-02  5.9323258271968D-02
   204  2.0300000000000D+00 -2.2826090432397D-02  4.6173900874455D-02
   205  2.0400000000000D+00 -1.7214597918024D-02  3.4658562405760D-02
   206  2.0500000000000D+00 -1.2356427329010D-02  2.4771424532646D-02
   207  2.0600000000000D+00 -8.2601347877280D-03  1.6495961580979D-02
   208  2.0700000000000D+00 -4.9639750891909D-03  9.8782793721492D-03
   209  2.0800000000000D+00 -2.5275025552153D-03  5.0107054743382D-03
   210  2.0900000000000D+00 -9.7216257187506D-04  1.9150642580078D-03
   211  2.1000000000000D+00 -1.4378856204060D-04  2.7303804572582D-04
   212  2.1100000000000D+00  1.4999934819518D-04 -3.0478133741780D-04
   213  2.1200000000000D+00  1.3029927443719D-04 -2.6109512127151D-04
   214  2.1300000000000D+00  4.3758884567187D-06 -8.7331809557087D-06
   215  2.1400000000000D+00 -4.5113417462592D-05  9.0215788906752D-05
   216  2.1500000000000D+00 -2.7339553672503D-05  5.4604777847585D-05
   217  2.1600000000000D+00  4.6743394060875D-06 -9.4141703262412D-06
   218  2.1700000000000D+00  8.4514926337258D-06 -1.7010857148503D-05
   219  2.1800000000000D+00  1.7499130558070D-06 -3.5205359602513D-06
   220  2.1900000000000D+00 -1.4807563257894D-07  3.1829866398911D-07
   221  2.2000000000000D+00 -1.3181390289985D-07  2.8334296776241D-07
   222  2.2100000000000D+00  0.0000000000000D+00  0.0000000000000D+00
   223  2.2200000000000D+00  0.0000000000000D+00  0.0000000000000D+00
   224  2.2300000000000D+00  0.0000000000000D+00  0.0000000000000D+00
   225  2.2400000000000D+00  0.0000000000000D+00  0.0000000000000D+00
   226  2.2500000000000D+00  0.0000000000000D+00  0.0000000000000D+00
   227  2.2600000000000D+00  0.0000000000000D+00  0.0000000000000D+00
   228  2.2700000000000D+00  0.0000000000000D+00  0.0000000000000D+00
   229  2.2800000000000D+00  0.0000000000000D+00  0.0000000000000D+00
   230  2.2900000000000D+00  0.0000000000000D+00  0.0000000000000D+00
   231  2.3000000000000D+00  0.0000000000000D+00  0.0000000000000D+00
   232  2.3100000000000D+00  0.0000000000000D+00  0.0000000000000D+00
   233  2.3200000000000D+00  0.0000000000000D+00  0.0000000000000D+00
   234  2.3300000000000D+00  0.0000000000000D+00  0.0000000000000D+00
   235  2.3400000000000D+00  0.0000000000000D+00  0.0000000000000D+00
   236  2.3500000000000D+00  0.0000000000000D+00  0.0000000000000D+00
   237  2.3600000000000D+00  0.0000000000000D+00  0.0000000000000D+00
   238  2.3700000000000D+00  0.0000000000000D+00  0.0000000000000D+00
   239  2.3800000000000D+00  0.0000000000000D+00  0.0000000000000D+00
   240  2.3900000000000D+00  0.0000000000000D+00  0.0000000000000D+00
   241  2.4000000000000D+00  0.0000000000000D+00  0.0000000000000D+00
   242  2.4100000000000D+00  0.0000000000000D+00  0.0000000000000D+00
   243  2.4200000000000D+00  0.0000000000000D+00  0.0000000000000D+00
   244  2.4300000000000D+00  0.0000000000000D+00  0.0000000000000D+00
   245  2.4400000000000D+00  0.0000000000000D+00  0.0000000000000D+00
   246  2.4500000000000D+00  0.0000000000000D+00  0.0000000000000D+00
   247  2.4600000000000D+00  0.0000000000000D+00  0.0000000000000D+00
   248  2.4700000000000D+00  0.0000000000000D+00  0.0000000000000D+00
   249  2.4800000000000D+00  0.0000000000000D+00  0.0000000000000D+00
   250  2.4900000000000D+00  0.0000000000000D+00  0.0000000000000D+00
   251  2.5000000000000D+00  0.0000000000000D+00  0.0000000000000D+00
   252  2.5100000000000D+00  0.0000000000000D+00  0.0000000000000D+00
   253  2.5200000000000D+00  0.0000000000000D+00  0.0000000000000D+00
   254  2.5300000000000D+00  0.0000000000000D+00  0.0000000000000D+00
   255  2.5400000000000D+00  0.0000000000000D+00  0.0000000000000D+00
   256  2.5500000000000D+00  0.0000000000000D+00  0.0000000000000D+00
   257  2.5600000000000D+00  0.0000000000000D+00  0.0000000000000D+00
   258  2.5700000000000D+00  0.0000000000000D+00  0.0000000000000D+00
   259  2.5800000000000D+00  0.0000000000000D+00  0.0000000000000D+00
   260  2.5900000000000D+00  0.0000000000000D+00  0.0000000000000D+00
   261  2.6000000000000D+00  0.0000000000000D+00  0.0000000000000D+00
   262  2.6100000000000D+00  0.0000000000000D+00  0.0000000000000D+00
   263  2.6200000000000D+00  0.0000000000000D+00  0.0000000000000D+00
   264  2.6300000000000D+00  0.0000000000000D+00  0.0000000000000D+00
   265  2.6400000000000D+00  0.0000000000000D+00  0.0000000000000D+00
   266  2.6500000000000D+00  0.0000000000000D+00  0.0000000000000D+00
   267  2.6600000000000D+00  0.0000000000000D+00  0.0000000000000D+00
   268  2.6700000000000D+00  0.0000000000000D+00  0.0000000000000D+00
   269  2.6800000000000D+00  0.0000000000000D+00  0.0000000000000D+00
   270  2.6900000000000D+00  0.0000000000000D+00  0.0000000000000D+00
   271  2.7000000000000D+00  0.0000000000000D+00  0.0000000000000D+00
   272  2.7100000000000D+00  0.0000000000000D+00  0.0000000000000D+00
   273  2.7200000000000D+00  0.0000000000000D+00  0.0000000000000D+00
   274  2.7300000000000D+00  0.0000000000000D+00  0.0000000000000D+00
   275  2.7400000000000D+00  0.0000000000000D+00  0.0000000000000D+00
   276  2.7500000000000D+00  0.0000000000000D+00  0.0000000000000D+00
   277  2.7600000000000D+00  0.0000000000000D+00  0.0000000000000D+00
   278  2.7700000000000D+00  0.0000000000000D+00  0.0000000000000D+00
   279  2.7800000000000D+00  0.0000000000000D+00  0.0000000000000D+00
   280  2.7900000000000D+00  0.0000000000000D+00  0.0000000000000D+00
   281  2.8000000000000D+00  0.0000000000000D+00  0.0000000000000D+00
   282  2.8100000000000D+00  0.0000000000000D+00  0.0000000000000D+00
   283  2.8200000000000D+00  0.0000000000000D+00  0.0000000000000D+00
   284  2.8300000000000D+00  0.0000000000000D+00  0.0000000000000D+00
   285  2.8400000000000D+00  0.0000000000000D+00  0.0000000000000D+00
   286  2.8500000000000D+00  0.0000000000000D+00  0.0000000000000D+00
   287  2.8600000000000D+00  0.0000000000000D+00  0.0000000000000D+00
   288  2.8700000000000D+00  0.0000000000000D+00  0.0000000000000D+00
   289  2.8800000000000D+00  0.0000000000000D+00  0.0000000000000D+00
   290  2.8900000000000D+00  0.0000000000000D+00  0.0000000000000D+00
   291  2.9000000000000D+00  0.0000000000000D+00  0.0000000000000D+00
   292  2.9100000000000D+00  0.0000000000000D+00  0.0000000000000D+00
   293  2.9200000000000D+00  0.0000000000000D+00  0.0000000000000D+00
   294  2.9300000000000D+00  0.0000000000000D+00  0.0000000000000D+00
   295  2.9400000000000D+00  0.0000000000000D+00  0.0000000000000D+00
   296  2.9500000000000D+00  0.0000000000000D+00  0.0000000000000D+00
   297  2.9600000000000D+00  0.0000000000000D+00  0.0000000000000D+00
   298  2.9700000000000D+00  0.0000000000000D+00  0.0000000000000D+00
   299  2.9800000000000D+00  0.0000000000000D+00  0.0000000000000D+00
   300  2.9900000000000D+00  0.0000000000000D+00  0.0000000000000D+00
   301  3.0000000000000D+00  0.0000000000000D+00  0.0000000000000D+00
   302  3.0100000000000D+00  0.0000000000000D+00  0.0000000000000D+00
   303  3.0200000000000D+00  0.0000000000000D+00  0.0000000000000D+00
   304  3.0300000000000D+00  0.0000000000000D+00  0.0000000000000D+00
   305  3.0400000000000D+00  0.0000000000000D+00  0.0000000000000D+00
   306  3.0500000000000D+00  0.0000000000000D+00  0.0000000000000D+00
   307  3.0600000000000D+00  0.0000000000000D+00  0.0000000000000D+00
   308  3.0700000000000D+00  0.0000000000000D+00  0.0000000000000D+00
   309  3.0800000000000D+00  0.0000000000000D+00  0.0000000000000D+00
   310  3.0900000000000D+00  0.0000000000000D+00  0.0000000000000D+00
   311  3.1000000000000D+00  0.0000000000000D+00  0.0000000000000D+00
   312  3.1100000000000D+00  0.0000000000000D+00  0.0000000000000D+00
   313  3.1200000000000D+00  0.0000000000000D+00  0.0000000000000D+00
   314  3.1300000000000D+00  0.0000000000000D+00  0.0000000000000D+00
   315  3.1400000000000D+00  0.0000000000000D+00  0.0000000000000D+00
   316  3.1500000000000D+00  0.0000000000000D+00  0.0000000000000D+00
   317  3.1600000000000D+00  0.0000000000000D+00  0.0000000000000D+00
   318  3.1700000000000D+00  0.0000000000000D+00  0.0000000000000D+00
   319  3.1800000000000D+00  0.0000000000000D+00  0.0000000000000D+00
   320  3.1900000000000D+00  0.0000000000000D+00  0.0000000000000D+00
   321  3.2000000000000D+00  0.0000000000000D+00  0.0000000000000D+00
   322  3.2100000000000D+00  0.0000000000000D+00  0.0000000000000D+00
   323  3.2200000000000D+00  0.0000000000000D+00  0.0000000000000D+00
   324  3.2300000000000D+00  0.0000000000000D+00  0.0000000000000D+00
   325  3.2400000000000D+00  0.0000000000000D+00  0.0000000000000D+00
   326  3.2500000000000D+00  0.0000000000000D+00  0.0000000000000D+00
   327  3.2600000000000D+00  0.0000000000000D+00  0.0000000000000D+00
   328  3.2700000000000D+00  0.0000000000000D+00  0.0000000000000D+00
   329  3.2800000000000D+00  0.0000000000000D+00  0.0000000000000D+00
   330  3.2900000000000D+00  0.0000000000000D+00  0.0000000000000D+00
   331  3.3000000000000D+00  0.0000000000000D+00  0.0000000000000D+00
   332  3.3100000000000D+00  0.0000000000000D+00  0.0000000000000D+00
   333  3.3200000000000D+00  0.0000000000000D+00  0.0000000000000D+00
   334  3.3300000000000D+00  0.0000000000000D+00  0.0000000000000D+00
   335  3.3400000000000D+00  0.0000000000000D+00  0.0000000000000D+00
   336  3.3500000000000D+00  0.0000000000000D+00  0.0000000000000D+00
   337  3.3600000000000D+00  0.0000000000000D+00  0.0000000000000D+00
   338  3.3700000000000D+00  0.0000000000000D+00  0.0000000000000D+00
   339  3.3800000000000D+00  0.0000000000000D+00  0.0000000000000D+00
   340  3.3900000000000D+00  0.0000000000000D+00  0.0000000000000D+00
   341  3.4000000000000D+00  0.0000000000000D+00  0.0000000000000D+00
   342  3.4100000000000D+00  0.0000000000000D+00  0.0000000000000D+00
   343  3.4200000000000D+00  0.0000000000000D+00  0.0000000000000D+00
   344  3.4300000000000D+00  0.0000000000000D+00  0.0000000000000D+00
   345  3.4400000000000D+00  0.0000000000000D+00  0.0000000000000D+00
   346  3.4500000000000D+00  0.0000000000000D+00  0.0000000000000D+00
   347  3.4600000000000D+00  0.0000000000000D+00  0.0000000000000D+00
   348  3.4700000000000D+00  0.0000000000000D+00  0.0000000000000D+00
   349  3.4800000000000D+00  0.0000000000000D+00  0.0000000000000D+00
   350  3.4900000000000D+00  0.0000000000000D+00  0.0000000000000D+00
   351  3.5000000000000D+00  0.0000000000000D+00  0.0000000000000D+00
   352  3.5100000000000D+00  0.0000000000000D+00  0.0000000000000D+00
   353  3.5200000000000D+00  0.0000000000000D+00  0.0000000000000D+00
   354  3.5300000000000D+00  0.0000000000000D+00  0.0000000000000D+00
   355  3.5400000000000D+00  0.0000000000000D+00  0.0000000000000D+00
   356  3.5500000000000D+00  0.0000000000000D+00  0.0000000000000D+00
   357  3.5600000000000D+00  0.0000000000000D+00  0.0000000000000D+00
   358  3.5700000000000D+00  0.0000000000000D+00  0.0000000000000D+00
   359  3.5800000000000D+00  0.0000000000000D+00  0.0000000000000D+00
   360  3.5900000000000D+00  0.0000000000000D+00  0.0000000000000D+00
   361  3.6000000000000D+00  0.0000000000000D+00  0.0000000000000D+00
   362  3.6100000000000D+00  0.0000000000000D+00  0.0000000000000D+00
   363  3.6200000000000D+00  0.0000000000000D+00  0.0000000000000D+00
   364  3.6300000000000D+00  0.0000000000000D+00  0.0000000000000D+00
   365  3.6400000000000D+00  0.0000000000000D+00  0.0000000000000D+00
   366  3.6500000000000D+00  0.0000000000000D+00  0.0000000000000D+00
   367  3.6600000000000D+00  0.0000000000000D+00  0.0000000000000D+00
   368  3.6700000000000D+00  0.0000000000000D+00  0.0000000000000D+00
   369  3.6800000000000D+00  0.0000000000000D+00  0.0000000000000D+00
   370  3.6900000000000D+00  0.0000000000000D+00  0.0000000000000D+00
   371  3.7000000000000D+00  0.0000000000000D+00  0.0000000000000D+00
   372  3.7100000000000D+00  0.0000000000000D+00  0.0000000000000D+00
   373  3.7200000000000D+00  0.0000000000000D+00  0.0000000000000D+00
   374  3.7300000000000D+00  0.0000000000000D+00  0.0000000000000D+00
   375  3.7400000000000D+00  0.0000000000000D+00  0.0000000000000D+00
   376  3.7500000000000D+00  0.0000000000000D+00  0.0000000000000D+00
   377  3.7600000000000D+00  0.0000000000000D+00  0.0000000000000D+00
   378  3.7700000000000D+00  0.0000000000000D+00  0.0000000000000D+00
   379  3.7800000000000D+00  0.0000000000000D+00  0.0000000000000D+00
   380  3.7900000000000D+00  0.0000000000000D+00  0.0000000000000D+00
   381  3.8000000000000D+00  0.0000000000000D+00  0.0000000000000D+00
   382  3.8100000000000D+00  0.0000000000000D+00  0.0000000000000D+00
   383  3.8200000000000D+00  0.0000000000000D+00  0.0000000000000D+00
   384  3.8300000000000D+00  0.0000000000000D+00  0.0000000000000D+00
   385  3.8400000000000D+00  0.0000000000000D+00  0.0000000000000D+00
   386  3.8500000000000D+00  0.0000000000000D+00  0.0000000000000D+00
   387  3.8600000000000D+00  0.0000000000000D+00  0.0000000000000D+00
   388  3.8700000000000D+00  0.0000000000000D+00  0.0000000000000D+00
   389  3.8800000000000D+00  0.0000000000000D+00  0.0000000000000D+00
   390  3.8900000000000D+00  0.0000000000000D+00  0.0000000000000D+00
   391  3.9000000000000D+00  0.0000000000000D+00  0.0000000000000D+00
   392  3.9100000000000D+00  0.0000000000000D+00  0.0000000000000D+00
   393  3.9200000000000D+00  0.0000000000000D+00  0.0000000000000D+00
   394  3.9300000000000D+00  0.0000000000000D+00  0.0000000000000D+00
   395  3.9400000000000D+00  0.0000000000000D+00  0.0000000000000D+00
   396  3.9500000000000D+00  0.0000000000000D+00  0.0000000000000D+00
   397  3.9600000000000D+00  0.0000000000000D+00  0.0000000000000D+00
   398  3.9700000000000D+00  0.0000000000000D+00  0.0000000000000D+00
   399  3.9800000000000D+00  0.0000000000000D+00  0.0000000000000D+00
   400  3.9900000000000D+00  0.0000000000000D+00  0.0000000000000D+00
   401  4.0000000000000D+00  0.0000000000000D+00  0.0000000000000D+00
   402  4.0100000000000D+00  0.0000000000000D+00  0.0000000000000D+00
   403  4.0200000000000D+00  0.0000000000000D+00  0.0000000000000D+00
   404  4.0300000000000D+00  0.0000000000000D+00  0.0000000000000D+00
   405  4.0400000000000D+00  0.0000000000000D+00  0.0000000000000D+00
   406  4.0500000000000D+00  0.0000000000000D+00  0.0000000000000D+00
   407  4.0600000000000D+00  0.0000000000000D+00  0.0000000000000D+00
   408  4.0700000000000D+00  0.0000000000000D+00  0.0000000000000D+00
   409  4.0800000000000D+00  0.0000000000000D+00  0.0000000000000D+00
   410  4.0900000000000D+00  0.0000000000000D+00  0.0000000000000D+00
   411  4.1000000000000D+00  0.0000000000000D+00  0.0000000000000D+00
   412  4.1100000000000D+00  0.0000000000000D+00  0.0000000000000D+00
   413  4.1200000000000D+00  0.0000000000000D+00  0.0000000000000D+00
   414  4.1300000000000D+00  0.0000000000000D+00  0.0000000000000D+00
   415  4.1400000000000D+00  0.0000000000000D+00  0.0000000000000D+00
   416  4.1500000000000D+00  0.0000000000000D+00  0.0000000000000D+00
   417  4.1600000000000D+00  0.0000000000000D+00  0.0000000000000D+00
   418  4.1700000000000D+00  0.0000000000000D+00  0.0000000000000D+00
   419  4.1800000000000D+00  0.0000000000000D+00  0.0000000000000D+00
   420  4.1900000000000D+00  0.0000000000000D+00  0.0000000000000D+00
   421  4.2000000000000D+00  0.0000000000000D+00  0.0000000000000D+00
   422  4.2100000000000D+00  0.0000000000000D+00  0.0000000000000D+00