Tl    ONCVPSP-3.3.0  r_core=   1.40325   1.50736   1.40325
     81.0000     21.0000      220408    zatom,zion,pspd
     8       2   2     4   600     0    pspcod,pspxc,lmax,lloc,mmax,r2well
  5.99000000  0.00000000  0.00000000    rchrg fchrg qchrg
     2     2     2     0     0    nproj
     1     1           extension_switch
   0                         1.6651842048355D+01  1.9836011989327D+00
     1  0.0000000000000D+00 -6.2960026081527D-10  2.0272351575201D-09
     2  1.0000000000000D-02  8.0689802976538D-02 -2.8175090026190D-02
     3  2.0000000000000D-02  1.6117055393058D-01 -5.6102182394911D-02
     4  3.0000000000000D-02  2.4123415918249D-01 -8.3535621064682D-02
     5  4.0000000000000D-02  3.2067443138683D-01 -1.1023439996214D-01
     6  5.0000000000000D-02  3.9928801698422D-01 -1.3596440533324D-01
     7  6.0000000000000D-02  4.7687529325119D-01 -1.6050056040170D-01
     8  7.0000000000000D-02  5.5324122556610D-01 -1.8362884219118D-01
     9  8.0000000000000D-02  6.2819617613929D-01 -2.0514814239479D-01
    10  9.0000000000000D-02  7.0155665622316D-01 -2.2487194665074D-01
    11  1.0000000000000D-01  7.7314601471296D-01 -2.4262980946849D-01
    12  1.1000000000000D-01  8.4279505705495D-01 -2.5826860530088D-01
    13  1.2000000000000D-01  9.1034258948169D-01 -2.7165353982441D-01
    14  1.3000000000000D-01  9.7563588477481D-01 -2.8266890931746D-01
    15  1.4000000000000D-01  1.0385310669961D+00 -2.9121860005463D-01
    16  1.5000000000000D-01  1.0988934139069D+00 -2.9722632380162D-01
    17  1.6000000000000D-01  1.1565975770952D+00 -3.0063558973530D-01
    18  1.7000000000000D-01  1.2115277211217D+00 -3.0140941735835D-01
    19  1.8000000000000D-01  1.2635775842713D+00 -2.9952979916226D-01
    20  1.9000000000000D-01  1.3126504647184D+00 -2.9499692584751D-01
    21  2.0000000000000D-01  1.3586591370736D+00 -2.8782819077088D-01
    22  2.1000000000000D-01  1.4015257053548D+00 -2.7805699389352D-01
    23  2.2000000000000D-01  1.4411813993910D+00 -2.6573136878979D-01
    24  2.3000000000000D-01  1.4775663225139D+00 -2.5091245919048D-01
    25  2.4000000000000D-01  1.5106291591024D+00 -2.3367287402527D-01
    26  2.5000000000000D-01  1.5403268511003D+00 -2.1409495195263D-01
    27  2.6000000000000D-01  1.5666242530260D+00 -1.9226896788514D-01
    28  2.7000000000000D-01  1.5894937752147D+00 -1.6829131500316D-01
    29  2.8000000000000D-01  1.6089150250835D+00 -1.4226269617878D-01
    30  2.9000000000000D-01  1.6248744560783D+00 -1.1428635859146D-01
    31  3.0000000000000D-01  1.6373650336468D+00 -8.4466404601723D-02
    32  3.1000000000000D-01  1.6463859270935D+00 -5.2906210665166D-02
    33  3.2000000000000D-01  1.6519422355096D+00 -1.9706984227742D-02
    34  3.3000000000000D-01  1.6540447551436D+00  1.5033513830330D-02
    35  3.4000000000000D-01  1.6527097946020D+00  5.1222056512534D-02
    36  3.5000000000000D-01  1.6479590431496D+00  8.8770826434153D-02
    37  3.6000000000000D-01  1.6398194961433D+00  1.2759806236352D-01
    38  3.7000000000000D-01  1.6283234402906D+00  1.6762846309130D-01
    39  3.8000000000000D-01  1.6135085000027D+00  2.0879333955263D-01
    40  3.9000000000000D-01  1.5954177446297D+00  2.5103051076547D-01
    41  4.0000000000000D-01  1.5740998548523D+00  2.9428394394327D-01
    42  4.1000000000000D-01  1.5496093449793D+00  3.3850314401410D-01
    43  4.2000000000000D-01  1.5220068363972D+00  3.8364230265246D-01
    44  4.3000000000000D-01  1.4913593759547D+00  4.2965922172245D-01
    45  4.4000000000000D-01  1.4577407916764D+00  4.7651403066115D-01
    46  4.5000000000000D-01  1.4212320769092D+00  5.2416772171826D-01
    47  4.6000000000000D-01  1.3819217928331D+00  5.7258053103369D-01
    48  4.7000000000000D-01  1.3399064782446D+00  6.2171019720557D-01
    49  4.8000000000000D-01  1.2952910546675D+00  6.7151013220568D-01
    50  4.9000000000000D-01  1.2481892141774D+00  7.2192754217526D-01
    51  5.0000000000000D-01  1.1987237768642D+00  7.7290153772477D-01
    52  5.1000000000000D-01  1.1470270046161D+00  8.2436127481717D-01
    53  5.2000000000000D-01  1.0932408578958D+00  8.7622416809834D-01
    54  5.3000000000000D-01  1.0375171824087D+00  9.2839421861988D-01
    55  5.4000000000000D-01  9.8001781303116D-01  9.8076049726144D-01
    56  5.5000000000000D-01  9.2091458307833D-01  1.0331958237949D+00
    57  5.6000000000000D-01  8.6038922794528D-01  1.0855556794424D+00
    58  5.7000000000000D-01  7.9863317333037D-01  1.1376773879934D+00
    59  5.8000000000000D-01  7.3584719965726D-01  1.1893795970623D+00
    60  5.9000000000000D-01  6.7224097590628D-01  1.2404620869781D+00
    61  6.0000000000000D-01  6.0803245786136D-01  1.2907059300794D+00
    62  6.1000000000000D-01  5.4344714771522D-01  1.3398740179934D+00
    63  6.2000000000000D-01  4.7871721406388D-01  1.3877119687859D+00
    64  6.3000000000000D-01  4.1408047350087D-01  1.4339494198372D+00
    65  6.4000000000000D-01  3.4977923727764D-01  1.4783017059789D+00
    66  6.5000000000000D-01  2.8605902879794D-01  1.5204719158970D+00
    67  6.6000000000000D-01  2.2316718000401D-01  1.5601533132338D+00
    68  6.7000000000000D-01  1.6135131698148D-01  1.5970321022318D+00
    69  6.8000000000000D-01  1.0085774730389D-01  1.6307905113091D+00
    70  6.9000000000000D-01  4.1929763721954D-02  1.6611101617458D+00
    71  7.0000000000000D-01 -1.5194119260275D-02  1.6876756827947D+00
    72  7.1000000000000D-01 -7.0281977610345D-02  1.7101785290750D+00
    73  7.2000000000000D-01 -1.2311031893957D-01  1.7283209512388D+00
    74  7.3000000000000D-01 -1.7346593146065D-01  1.7418200666347D+00
    75  7.4000000000000D-01 -2.2114771853653D-01  1.7504119731652D+00
    76  7.5000000000000D-01 -2.6596849588762D-01  1.7538558467890D+00
    77  7.6000000000000D-01 -3.0775672810201D-01  1.7519379612344D+00
    78  7.7000000000000D-01 -3.4635818100433D-01  1.7444755675205D+00
    79  7.8000000000000D-01 -3.8163746669054D-01  1.7313205708521D+00
    80  7.9000000000000D-01 -4.1347945863750D-01  1.7123629434016D+00
    81  8.0000000000000D-01 -4.4179055524654D-01  1.6875338134102D+00
    82  8.1000000000000D-01 -4.6649977147534D-01  1.6568081739449D+00
    83  8.2000000000000D-01 -4.8755963984160D-01  1.6202071584913D+00
    84  8.3000000000000D-01 -5.0494690402960D-01  1.5777998353268D+00
    85  8.4000000000000D-01 -5.1866299057562D-01  1.5297044782417D+00
    86  8.5000000000000D-01 -5.2873424662371D-01  1.4760892775906D+00
    87  8.6000000000000D-01 -5.3521193449977D-01  1.4171724627817D+00
    88  8.7000000000000D-01 -5.3817197681123D-01  1.3532218150518D+00
    89  8.8000000000000D-01 -5.3771444890564D-01  1.2845535576276D+00
    90  8.9000000000000D-01 -5.3396281876818D-01  1.2115306190120D+00
    91  9.0000000000000D-01 -5.2706293776187D-01  1.1345602740449D+00
    92  9.1000000000000D-01 -5.1718178896645D-01  1.0540911764299D+00
    93  9.2000000000000D-01 -5.0450600320276D-01  9.7060980545940D-01
    94  9.3000000000000D-01 -4.8924015609004D-01  8.8463635856800D-01
    95  9.4000000000000D-01 -4.7160486262278D-01  7.9672012996223D-01
    96  9.5000000000000D-01 -4.5183468872351D-01  7.0743442377208D-01
    97  9.6000000000000D-01 -4.3017590197984D-01  6.1737105781274D-01
    98  9.7000000000000D-01 -4.0688408626424D-01  5.2713452100883D-01
    99  9.8000000000000D-01 -3.8222164711948D-01  4.3733585369063D-01
   100  9.9000000000000D-01 -3.5645523664647D-01  3.4858632525639D-01
   101  1.0000000000000D+00 -3.2985312806980D-01  2.6149098785256D-01
   102  1.0100000000000D+00 -3.0268257126149D-01  1.7664218799999D-01
   103  1.0200000000000D+00 -2.7520716111868D-01  9.4613120031799D-02
   104  1.0300000000000D+00 -2.4768425089030D-01  1.5951506014789D-02
   105  1.0400000000000D+00 -2.2036244230498D-01 -5.8826513574434D-02
   106  1.0500000000000D+00 -1.9347918359585D-01 -1.2924219595281D-01
   107  1.0600000000000D+00 -1.6725850542255D-01 -1.9485963920366D-01
   108  1.0700000000000D+00 -1.4190892307405D-01 -2.5529077698131D-01
   109  1.0800000000000D+00 -1.1762153125321D-01 -3.1019985468093D-01
   110  1.0900000000000D+00 -9.4568315418117D-02 -3.5930732316701D-01
   111  1.1000000000000D+00 -7.2900700618596D-02 -4.0239309425913D-01
   112  1.1100000000000D+00 -5.2748356125013D-02 -4.3929910925012D-01
   113  1.1200000000000D+00 -3.4218270241021D-02 -4.6993118224079D-01
   114  1.1300000000000D+00 -1.7394106297368D-02 -4.9426008925032D-01
   115  1.1400000000000D+00 -2.3358467041634D-03 -5.1232188521808D-01
   116  1.1500000000000D+00  1.0920271506533D-02 -5.2421744036157D-01
   117  1.1600000000000D+00  2.2361530720235D-02 -5.3011119959772D-01
   118  1.1700000000000D+00  3.1998221482268D-02 -5.3022917976522D-01
   119  1.1800000000000D+00  3.9862855358586D-02 -5.2485623110208D-01
   120  1.1900000000000D+00  4.6009114068593D-02 -5.1433259689960D-01
   121  1.2000000000000D+00  5.0510552460284D-02 -4.9904982005499D-01
   122  1.2100000000000D+00  5.3459075651762D-02 -4.7944605277939D-01
   123  1.2200000000000D+00  5.4963213796332D-02 -4.5600083428309D-01
   124  1.2300000000000D+00  5.5146220973195D-02 -4.2922940959166D-01
   125  1.2400000000000D+00  5.4144028048629D-02 -3.9967667178945D-01
   126  1.2500000000000D+00  5.2103080690818D-02 -3.6791081362993D-01
   127  1.2600000000000D+00  4.9178095485372D-02 -3.3451677928464D-01
   128  1.2700000000000D+00  4.5529773430483D-02 -3.0008962623797D-01
   129  1.2800000000000D+00  4.1322498645214D-02 -2.6522786956536D-01
   130  1.2900000000000D+00  3.6721999539524D-02 -2.3052672540357D-01
   131  1.3000000000000D+00  3.1893156018460D-02 -1.9657180802190D-01
   132  1.3100000000000D+00  2.6998419258867D-02 -1.6393480382372D-01
   133  1.3200000000000D+00  2.2193144871176D-02 -1.3315912155168D-01
   134  1.3300000000000D+00  1.7620854968570D-02 -1.0474543443544D-01
   135  1.3400000000000D+00  1.3408216466734D-02 -7.9136510317174D-02
   136  1.3500000000000D+00  9.6629015048324D-03 -5.6711303328980D-02
   137  1.3600000000000D+00  6.4743338724517D-03 -3.7793159821028D-02
   138  1.3700000000000D+00  3.9024369600027D-03 -2.2590222927618D-02
   139  1.3800000000000D+00  1.9804194264668D-03 -1.1219499900755D-02
   140  1.3900000000000D+00  7.9940491954934D-04 -4.1489517379402D-03
   141  1.4000000000000D+00  2.7332882531213D-04 -9.7499881734407D-04
   142  1.4100000000000D+00  7.2550289923554D-05 -4.6684545526338D-05
   143  1.4200000000000D+00  3.0865100603265D-07  7.6895734878766D-07
   144  1.4300000000000D+00 -5.0209681112144D-06 -2.9682107124784D-05
   145  1.4400000000000D+00  1.2115379923608D-06  1.4746132091307D-06
   146  1.4500000000000D+00  1.2314885901432D-06  2.4480407246515D-06
   147  1.4600000000000D+00 -4.8285042205543D-07  1.3150448900022D-06
   148  1.4700000000000D+00 -1.6454467728570D-07  4.4813803024236D-07
   149  1.4800000000000D+00  0.0000000000000D+00  0.0000000000000D+00
   150  1.4900000000000D+00  0.0000000000000D+00  0.0000000000000D+00
   151  1.5000000000000D+00  0.0000000000000D+00  0.0000000000000D+00
   152  1.5100000000000D+00  0.0000000000000D+00  0.0000000000000D+00
   153  1.5200000000000D+00  0.0000000000000D+00  0.0000000000000D+00
   154  1.5300000000000D+00  0.0000000000000D+00  0.0000000000000D+00
   155  1.5400000000000D+00  0.0000000000000D+00  0.0000000000000D+00
   156  1.5500000000000D+00  0.0000000000000D+00  0.0000000000000D+00
   157  1.5600000000000D+00  0.0000000000000D+00  0.0000000000000D+00
   158  1.5700000000000D+00  0.0000000000000D+00  0.0000000000000D+00
   159  1.5800000000000D+00  0.0000000000000D+00  0.0000000000000D+00
   160  1.5900000000000D+00  0.0000000000000D+00  0.0000000000000D+00
   161  1.6000000000000D+00  0.0000000000000D+00  0.0000000000000D+00
   162  1.6100000000000D+00  0.0000000000000D+00  0.0000000000000D+00
   163  1.6200000000000D+00  0.0000000000000D+00  0.0000000000000D+00
   164  1.6300000000000D+00  0.0000000000000D+00  0.0000000000000D+00
   165  1.6400000000000D+00  0.0000000000000D+00  0.0000000000000D+00
   166  1.6500000000000D+00  0.0000000000000D+00  0.0000000000000D+00
   167  1.6600000000000D+00  0.0000000000000D+00  0.0000000000000D+00
   168  1.6700000000000D+00  0.0000000000000D+00  0.0000000000000D+00
   169  1.6800000000000D+00  0.0000000000000D+00  0.0000000000000D+00
   170  1.6900000000000D+00  0.0000000000000D+00  0.0000000000000D+00
   171  1.7000000000000D+00  0.0000000000000D+00  0.0000000000000D+00
   172  1.7100000000000D+00  0.0000000000000D+00  0.0000000000000D+00
   173  1.7200000000000D+00  0.0000000000000D+00  0.0000000000000D+00
   174  1.7300000000000D+00  0.0000000000000D+00  0.0000000000000D+00
   175  1.7400000000000D+00  0.0000000000000D+00  0.0000000000000D+00
   176  1.7500000000000D+00  0.0000000000000D+00  0.0000000000000D+00
   177  1.7600000000000D+00  0.0000000000000D+00  0.0000000000000D+00
   178  1.7700000000000D+00  0.0000000000000D+00  0.0000000000000D+00
   179  1.7800000000000D+00  0.0000000000000D+00  0.0000000000000D+00
   180  1.7900000000000D+00  0.0000000000000D+00  0.0000000000000D+00
   181  1.8000000000000D+00  0.0000000000000D+00  0.0000000000000D+00
   182  1.8100000000000D+00  0.0000000000000D+00  0.0000000000000D+00
   183  1.8200000000000D+00  0.0000000000000D+00  0.0000000000000D+00
   184  1.8300000000000D+00  0.0000000000000D+00  0.0000000000000D+00
   185  1.8400000000000D+00  0.0000000000000D+00  0.0000000000000D+00
   186  1.8500000000000D+00  0.0000000000000D+00  0.0000000000000D+00
   187  1.8600000000000D+00  0.0000000000000D+00  0.0000000000000D+00
   188  1.8700000000000D+00  0.0000000000000D+00  0.0000000000000D+00
   189  1.8800000000000D+00  0.0000000000000D+00  0.0000000000000D+00
   190  1.8900000000000D+00  0.0000000000000D+00  0.0000000000000D+00
   191  1.9000000000000D+00  0.0000000000000D+00  0.0000000000000D+00
   192  1.9100000000000D+00  0.0000000000000D+00  0.0000000000000D+00
   193  1.9200000000000D+00  0.0000000000000D+00  0.0000000000000D+00
   194  1.9300000000000D+00  0.0000000000000D+00  0.0000000000000D+00
   195  1.9400000000000D+00  0.0000000000000D+00  0.0000000000000D+00
   196  1.9500000000000D+00  0.0000000000000D+00  0.0000000000000D+00
   197  1.9600000000000D+00  0.0000000000000D+00  0.0000000000000D+00
   198  1.9700000000000D+00  0.0000000000000D+00  0.0000000000000D+00
   199  1.9800000000000D+00  0.0000000000000D+00  0.0000000000000D+00
   200  1.9900000000000D+00  0.0000000000000D+00  0.0000000000000D+00
   201  2.0000000000000D+00  0.0000000000000D+00  0.0000000000000D+00
   202  2.0100000000000D+00  0.0000000000000D+00  0.0000000000000D+00
   203  2.0200000000000D+00  0.0000000000000D+00  0.0000000000000D+00
   204  2.0300000000000D+00  0.0000000000000D+00  0.0000000000000D+00
   205  2.0400000000000D+00  0.0000000000000D+00  0.0000000000000D+00
   206  2.0500000000000D+00  0.0000000000000D+00  0.0000000000000D+00
   207  2.0600000000000D+00  0.0000000000000D+00  0.0000000000000D+00
   208  2.0700000000000D+00  0.0000000000000D+00  0.0000000000000D+00
   209  2.0800000000000D+00  0.0000000000000D+00  0.0000000000000D+00
   210  2.0900000000000D+00  0.0000000000000D+00  0.0000000000000D+00
   211  2.1000000000000D+00  0.0000000000000D+00  0.0000000000000D+00
   212  2.1100000000000D+00  0.0000000000000D+00  0.0000000000000D+00
   213  2.1200000000000D+00  0.0000000000000D+00  0.0000000000000D+00
   214  2.1300000000000D+00  0.0000000000000D+00  0.0000000000000D+00
   215  2.1400000000000D+00  0.0000000000000D+00  0.0000000000000D+00
   216  2.1500000000000D+00  0.0000000000000D+00  0.0000000000000D+00
   217  2.1600000000000D+00  0.0000000000000D+00  0.0000000000000D+00
   218  2.1700000000000D+00  0.0000000000000D+00  0.0000000000000D+00
   219  2.1800000000000D+00  0.0000000000000D+00  0.0000000000000D+00
   220  2.1900000000000D+00  0.0000000000000D+00  0.0000000000000D+00
   221  2.2000000000000D+00  0.0000000000000D+00  0.0000000000000D+00
   222  2.2100000000000D+00  0.0000000000000D+00  0.0000000000000D+00
   223  2.2200000000000D+00  0.0000000000000D+00  0.0000000000000D+00
   224  2.2300000000000D+00  0.0000000000000D+00  0.0000000000000D+00
   225  2.2400000000000D+00  0.0000000000000D+00  0.0000000000000D+00
   226  2.2500000000000D+00  0.0000000000000D+00  0.0000000000000D+00
   227  2.2600000000000D+00  0.0000000000000D+00  0.0000000000000D+00
   228  2.2700000000000D+00  0.0000000000000D+00  0.0000000000000D+00
   229  2.2800000000000D+00  0.0000000000000D+00  0.0000000000000D+00
   230  2.2900000000000D+00  0.0000000000000D+00  0.0000000000000D+00
   231  2.3000000000000D+00  0.0000000000000D+00  0.0000000000000D+00
   232  2.3100000000000D+00  0.0000000000000D+00  0.0000000000000D+00
   233  2.3200000000000D+00  0.0000000000000D+00  0.0000000000000D+00
   234  2.3300000000000D+00  0.0000000000000D+00  0.0000000000000D+00
   235  2.3400000000000D+00  0.0000000000000D+00  0.0000000000000D+00
   236  2.3500000000000D+00  0.0000000000000D+00  0.0000000000000D+00
   237  2.3600000000000D+00  0.0000000000000D+00  0.0000000000000D+00
   238  2.3700000000000D+00  0.0000000000000D+00  0.0000000000000D+00
   239  2.3800000000000D+00  0.0000000000000D+00  0.0000000000000D+00
   240  2.3900000000000D+00  0.0000000000000D+00  0.0000000000000D+00
   241  2.4000000000000D+00  0.0000000000000D+00  0.0000000000000D+00
   242  2.4100000000000D+00  0.0000000000000D+00  0.0000000000000D+00
   243  2.4200000000000D+00  0.0000000000000D+00  0.0000000000000D+00
   244  2.4300000000000D+00  0.0000000000000D+00  0.0000000000000D+00
   245  2.4400000000000D+00  0.0000000000000D+00  0.0000000000000D+00
   246  2.4500000000000D+00  0.0000000000000D+00  0.0000000000000D+00
   247  2.4600000000000D+00  0.0000000000000D+00  0.0000000000000D+00
   248  2.4700000000000D+00  0.0000000000000D+00  0.0000000000000D+00
   249  2.4800000000000D+00  0.0000000000000D+00  0.0000000000000D+00
   250  2.4900000000000D+00  0.0000000000000D+00  0.0000000000000D+00
   251  2.5000000000000D+00  0.0000000000000D+00  0.0000000000000D+00
   252  2.5100000000000D+00  0.0000000000000D+00  0.0000000000000D+00
   253  2.5200000000000D+00  0.0000000000000D+00  0.0000000000000D+00
   254  2.5300000000000D+00  0.0000000000000D+00  0.0000000000000D+00
   255  2.5400000000000D+00  0.0000000000000D+00  0.0000000000000D+00
   256  2.5500000000000D+00  0.0000000000000D+00  0.0000000000000D+00
   257  2.5600000000000D+00  0.0000000000000D+00  0.0000000000000D+00
   258  2.5700000000000D+00  0.0000000000000D+00  0.0000000000000D+00
   259  2.5800000000000D+00  0.0000000000000D+00  0.0000000000000D+00
   260  2.5900000000000D+00  0.0000000000000D+00  0.0000000000000D+00
   261  2.6000000000000D+00  0.0000000000000D+00  0.0000000000000D+00
   262  2.6100000000000D+00  0.0000000000000D+00  0.0000000000000D+00
   263  2.6200000000000D+00  0.0000000000000D+00  0.0000000000000D+00
   264  2.6300000000000D+00  0.0000000000000D+00  0.0000000000000D+00
   265  2.6400000000000D+00  0.0000000000000D+00  0.0000000000000D+00
   266  2.6500000000000D+00  0.0000000000000D+00  0.0000000000000D+00
   267  2.6600000000000D+00  0.0000000000000D+00  0.0000000000000D+00
   268  2.6700000000000D+00  0.0000000000000D+00  0.0000000000000D+00
   269  2.6800000000000D+00  0.0000000000000D+00  0.0000000000000D+00
   270  2.6900000000000D+00  0.0000000000000D+00  0.0000000000000D+00
   271  2.7000000000000D+00  0.0000000000000D+00  0.0000000000000D+00
   272  2.7100000000000D+00  0.0000000000000D+00  0.0000000000000D+00
   273  2.7200000000000D+00  0.0000000000000D+00  0.0000000000000D+00
   274  2.7300000000000D+00  0.0000000000000D+00  0.0000000000000D+00
   275  2.7400000000000D+00  0.0000000000000D+00  0.0000000000000D+00
   276  2.7500000000000D+00  0.0000000000000D+00  0.0000000000000D+00
   277  2.7600000000000D+00  0.0000000000000D+00  0.0000000000000D+00
   278  2.7700000000000D+00  0.0000000000000D+00  0.0000000000000D+00
   279  2.7800000000000D+00  0.0000000000000D+00  0.0000000000000D+00
   280  2.7900000000000D+00  0.0000000000000D+00  0.0000000000000D+00
   281  2.8000000000000D+00  0.0000000000000D+00  0.0000000000000D+00
   282  2.8100000000000D+00  0.0000000000000D+00  0.0000000000000D+00
   283  2.8200000000000D+00  0.0000000000000D+00  0.0000000000000D+00
   284  2.8300000000000D+00  0.0000000000000D+00  0.0000000000000D+00
   285  2.8400000000000D+00  0.0000000000000D+00  0.0000000000000D+00
   286  2.8500000000000D+00  0.0000000000000D+00  0.0000000000000D+00
   287  2.8600000000000D+00  0.0000000000000D+00  0.0000000000000D+00
   288  2.8700000000000D+00  0.0000000000000D+00  0.0000000000000D+00
   289  2.8800000000000D+00  0.0000000000000D+00  0.0000000000000D+00
   290  2.8900000000000D+00  0.0000000000000D+00  0.0000000000000D+00
   291  2.9000000000000D+00  0.0000000000000D+00  0.0000000000000D+00
   292  2.9100000000000D+00  0.0000000000000D+00  0.0000000000000D+00
   293  2.9200000000000D+00  0.0000000000000D+00  0.0000000000000D+00
   294  2.9300000000000D+00  0.0000000000000D+00  0.0000000000000D+00
   295  2.9400000000000D+00  0.0000000000000D+00  0.0000000000000D+00
   296  2.9500000000000D+00  0.0000000000000D+00  0.0000000000000D+00
   297  2.9600000000000D+00  0.0000000000000D+00  0.0000000000000D+00
   298  2.9700000000000D+00  0.0000000000000D+00  0.0000000000000D+00
   299  2.9800000000000D+00  0.0000000000000D+00  0.0000000000000D+00
   300  2.9900000000000D+00  0.0000000000000D+00  0.0000000000000D+00
   301  3.0000000000000D+00  0.0000000000000D+00  0.0000000000000D+00
   302  3.0100000000000D+00  0.0000000000000D+00  0.0000000000000D+00
   303  3.0200000000000D+00  0.0000000000000D+00  0.0000000000000D+00
   304  3.0300000000000D+00  0.0000000000000D+00  0.0000000000000D+00
   305  3.0400000000000D+00  0.0000000000000D+00  0.0000000000000D+00
   306  3.0500000000000D+00  0.0000000000000D+00  0.0000000000000D+00
   307  3.0600000000000D+00  0.0000000000000D+00  0.0000000000000D+00
   308  3.0700000000000D+00  0.0000000000000D+00  0.0000000000000D+00
   309  3.0800000000000D+00  0.0000000000000D+00  0.0000000000000D+00
   310  3.0900000000000D+00  0.0000000000000D+00  0.0000000000000D+00
   311  3.1000000000000D+00  0.0000000000000D+00  0.0000000000000D+00
   312  3.1100000000000D+00  0.0000000000000D+00  0.0000000000000D+00
   313  3.1200000000000D+00  0.0000000000000D+00  0.0000000000000D+00
   314  3.1300000000000D+00  0.0000000000000D+00  0.0000000000000D+00
   315  3.1400000000000D+00  0.0000000000000D+00  0.0000000000000D+00
   316  3.1500000000000D+00  0.0000000000000D+00  0.0000000000000D+00
   317  3.1600000000000D+00  0.0000000000000D+00  0.0000000000000D+00
   318  3.1700000000000D+00  0.0000000000000D+00  0.0000000000000D+00
   319  3.1800000000000D+00  0.0000000000000D+00  0.0000000000000D+00
   320  3.1900000000000D+00  0.0000000000000D+00  0.0000000000000D+00
   321  3.2000000000000D+00  0.0000000000000D+00  0.0000000000000D+00
   322  3.2100000000000D+00  0.0000000000000D+00  0.0000000000000D+00
   323  3.2200000000000D+00  0.0000000000000D+00  0.0000000000000D+00
   324  3.2300000000000D+00  0.0000000000000D+00  0.0000000000000D+00
   325  3.2400000000000D+00  0.0000000000000D+00  0.0000000000000D+00
   326  3.2500000000000D+00  0.0000000000000D+00  0.0000000000000D+00
   327  3.2600000000000D+00  0.0000000000000D+00  0.0000000000000D+00
   328  3.2700000000000D+00  0.0000000000000D+00  0.0000000000000D+00
   329  3.2800000000000D+00  0.0000000000000D+00  0.0000000000000D+00
   330  3.2900000000000D+00  0.0000000000000D+00  0.0000000000000D+00
   331  3.3000000000000D+00  0.0000000000000D+00  0.0000000000000D+00
   332  3.3100000000000D+00  0.0000000000000D+00  0.0000000000000D+00
   333  3.3200000000000D+00  0.0000000000000D+00  0.0000000000000D+00
   334  3.3300000000000D+00  0.0000000000000D+00  0.0000000000000D+00
   335  3.3400000000000D+00  0.0000000000000D+00  0.0000000000000D+00
   336  3.3500000000000D+00  0.0000000000000D+00  0.0000000000000D+00
   337  3.3600000000000D+00  0.0000000000000D+00  0.0000000000000D+00
   338  3.3700000000000D+00  0.0000000000000D+00  0.0000000000000D+00
   339  3.3800000000000D+00  0.0000000000000D+00  0.0000000000000D+00
   340  3.3900000000000D+00  0.0000000000000D+00  0.0000000000000D+00
   341  3.4000000000000D+00  0.0000000000000D+00  0.0000000000000D+00
   342  3.4100000000000D+00  0.0000000000000D+00  0.0000000000000D+00
   343  3.4200000000000D+00  0.0000000000000D+00  0.0000000000000D+00
   344  3.4300000000000D+00  0.0000000000000D+00  0.0000000000000D+00
   345  3.4400000000000D+00  0.0000000000000D+00  0.0000000000000D+00
   346  3.4500000000000D+00  0.0000000000000D+00  0.0000000000000D+00
   347  3.4600000000000D+00  0.0000000000000D+00  0.0000000000000D+00
   348  3.4700000000000D+00  0.0000000000000D+00  0.0000000000000D+00
   349  3.4800000000000D+00  0.0000000000000D+00  0.0000000000000D+00
   350  3.4900000000000D+00  0.0000000000000D+00  0.0000000000000D+00
   351  3.5000000000000D+00  0.0000000000000D+00  0.0000000000000D+00
   352  3.5100000000000D+00  0.0000000000000D+00  0.0000000000000D+00
   353  3.5200000000000D+00  0.0000000000000D+00  0.0000000000000D+00
   354  3.5300000000000D+00  0.0000000000000D+00  0.0000000000000D+00
   355  3.5400000000000D+00  0.0000000000000D+00  0.0000000000000D+00
   356  3.5500000000000D+00  0.0000000000000D+00  0.0000000000000D+00
   357  3.5600000000000D+00  0.0000000000000D+00  0.0000000000000D+00
   358  3.5700000000000D+00  0.0000000000000D+00  0.0000000000000D+00
   359  3.5800000000000D+00  0.0000000000000D+00  0.0000000000000D+00
   360  3.5900000000000D+00  0.0000000000000D+00  0.0000000000000D+00
   361  3.6000000000000D+00  0.0000000000000D+00  0.0000000000000D+00
   362  3.6100000000000D+00  0.0000000000000D+00  0.0000000000000D+00
   363  3.6200000000000D+00  0.0000000000000D+00  0.0000000000000D+00
   364  3.6300000000000D+00  0.0000000000000D+00  0.0000000000000D+00
   365  3.6400000000000D+00  0.0000000000000D+00  0.0000000000000D+00
   366  3.6500000000000D+00  0.0000000000000D+00  0.0000000000000D+00
   367  3.6600000000000D+00  0.0000000000000D+00  0.0000000000000D+00
   368  3.6700000000000D+00  0.0000000000000D+00  0.0000000000000D+00
   369  3.6800000000000D+00  0.0000000000000D+00  0.0000000000000D+00
   370  3.6900000000000D+00  0.0000000000000D+00  0.0000000000000D+00
   371  3.7000000000000D+00  0.0000000000000D+00  0.0000000000000D+00
   372  3.7100000000000D+00  0.0000000000000D+00  0.0000000000000D+00
   373  3.7200000000000D+00  0.0000000000000D+00  0.0000000000000D+00
   374  3.7300000000000D+00  0.0000000000000D+00  0.0000000000000D+00
   375  3.7400000000000D+00  0.0000000000000D+00  0.0000000000000D+00
   376  3.7500000000000D+00  0.0000000000000D+00  0.0000000000000D+00
   377  3.7600000000000D+00  0.0000000000000D+00  0.0000000000000D+00
   378  3.7700000000000D+00  0.0000000000000D+00  0.0000000000000D+00
   379  3.7800000000000D+00  0.0000000000000D+00  0.0000000000000D+00
   380  3.7900000000000D+00  0.0000000000000D+00  0.0000000000000D+00
   381  3.8000000000000D+00  0.0000000000000D+00  0.0000000000000D+00
   382  3.8100000000000D+00  0.0000000000000D+00  0.0000000000000D+00
   383  3.8200000000000D+00  0.0000000000000D+00  0.0000000000000D+00
   384  3.8300000000000D+00  0.0000000000000D+00  0.0000000000000D+00
   385  3.8400000000000D+00  0.0000000000000D+00  0.0000000000000D+00
   386  3.8500000000000D+00  0.0000000000000D+00  0.0000000000000D+00
   387  3.8600000000000D+00  0.0000000000000D+00  0.0000000000000D+00
   388  3.8700000000000D+00  0.0000000000000D+00  0.0000000000000D+00
   389  3.8800000000000D+00  0.0000000000000D+00  0.0000000000000D+00
   390  3.8900000000000D+00  0.0000000000000D+00  0.0000000000000D+00
   391  3.9000000000000D+00  0.0000000000000D+00  0.0000000000000D+00
   392  3.9100000000000D+00  0.0000000000000D+00  0.0000000000000D+00
   393  3.9200000000000D+00  0.0000000000000D+00  0.0000000000000D+00
   394  3.9300000000000D+00  0.0000000000000D+00  0.0000000000000D+00
   395  3.9400000000000D+00  0.0000000000000D+00  0.0000000000000D+00
   396  3.9500000000000D+00  0.0000000000000D+00  0.0000000000000D+00
   397  3.9600000000000D+00  0.0000000000000D+00  0.0000000000000D+00
   398  3.9700000000000D+00  0.0000000000000D+00  0.0000000000000D+00
   399  3.9800000000000D+00  0.0000000000000D+00  0.0000000000000D+00
   400  3.9900000000000D+00  0.0000000000000D+00  0.0000000000000D+00
   401  4.0000000000000D+00  0.0000000000000D+00  0.0000000000000D+00
   402  4.0100000000000D+00  0.0000000000000D+00  0.0000000000000D+00
   403  4.0200000000000D+00  0.0000000000000D+00  0.0000000000000D+00
   404  4.0300000000000D+00  0.0000000000000D+00  0.0000000000000D+00
   405  4.0400000000000D+00  0.0000000000000D+00  0.0000000000000D+00
   406  4.0500000000000D+00  0.0000000000000D+00  0.0000000000000D+00
   407  4.0600000000000D+00  0.0000000000000D+00  0.0000000000000D+00
   408  4.0700000000000D+00  0.0000000000000D+00  0.0000000000000D+00
   409  4.0800000000000D+00  0.0000000000000D+00  0.0000000000000D+00
   410  4.0900000000000D+00  0.0000000000000D+00  0.0000000000000D+00
   411  4.1000000000000D+00  0.0000000000000D+00  0.0000000000000D+00
   412  4.1100000000000D+00  0.0000000000000D+00  0.0000000000000D+00
   413  4.1200000000000D+00  0.0000000000000D+00  0.0000000000000D+00
   414  4.1300000000000D+00  0.0000000000000D+00  0.0000000000000D+00
   415  4.1400000000000D+00  0.0000000000000D+00  0.0000000000000D+00
   416  4.1500000000000D+00  0.0000000000000D+00  0.0000000000000D+00
   417  4.1600000000000D+00  0.0000000000000D+00  0.0000000000000D+00
   418  4.1700000000000D+00  0.0000000000000D+00  0.0000000000000D+00
   419  4.1800000000000D+00  0.0000000000000D+00  0.0000000000000D+00
   420  4.1900000000000D+00  0.0000000000000D+00  0.0000000000000D+00
   421  4.2000000000000D+00  0.0000000000000D+00  0.0000000000000D+00
   422  4.2100000000000D+00  0.0000000000000D+00  0.0000000000000D+00