Sm    ONCVPSP-3.3.0  r_core=   1.90007   1.51475   1.76883   1.70665
     62.0000     16.0000      220408    zatom,zion,pspd
     8       2   3     4   600     0    pspcod,pspxc,lmax,lloc,mmax,r2well
  5.99000000  0.00000000  0.00000000    rchrg fchrg qchrg
     2     2     2     2     0    nproj
     1     1           extension_switch
   0                         8.4766608187677D+00  5.9591563146897D-01
     1  0.0000000000000D+00 -1.6889267762110D-12  7.1316938465849D-11
     2  1.0000000000000D-02  3.9187449529072D-02 -1.3311852090482D-02
     3  2.0000000000000D-02  7.8349240056271D-02 -2.6582094666500D-02
     4  3.0000000000000D-02  1.1745968453675D-01 -3.9769333267248D-02
     5  4.0000000000000D-02  1.5649304002911D-01 -5.2832601556088D-02
     6  5.0000000000000D-02  1.9542348022097D-01 -6.5731570442870D-02
     7  6.0000000000000D-02  2.3422506852457D-01 -7.8426751329243D-02
     8  7.0000000000000D-02  2.7287173193415D-01 -9.0879691601837D-02
     9  8.0000000000000D-02  3.1133723583900D-01 -1.0305316056954D-01
    10  9.0000000000000D-02  3.4959515998758D-01 -1.1491132412883D-01
    11  1.0000000000000D-01  3.8761887580058D-01 -1.2641990654511D-01
    12  1.1000000000000D-01  4.2538152523305D-01 -1.3754633785724D-01
    13  1.2000000000000D-01  4.6285600138807D-01 -1.4825988554572D-01
    14  1.3000000000000D-01  5.0001493108686D-01 -1.5853176925186D-01
    15  1.4000000000000D-01  5.3683065960229D-01 -1.6833525749388D-01
    16  1.5000000000000D-01  5.7327523776484D-01 -1.7764574549529D-01
    17  1.6000000000000D-01  6.0932041165130D-01 -1.8644081341969D-01
    18  1.7000000000000D-01  6.4493761506747D-01 -1.9470026449293D-01
    19  1.8000000000000D-01  6.8009796503629D-01 -2.0240614268649D-01
    20  1.9000000000000D-01  7.1477226050217D-01 -2.0954272983343D-01
    21  2.0000000000000D-01  7.4893098446027D-01 -2.1609652224917D-01
    22  2.1000000000000D-01  7.8254430971704D-01 -2.2205618713100D-01
    23  2.2000000000000D-01  8.1558210848331D-01 -2.2741249921149D-01
    24  2.3000000000000D-01  8.4801396599626D-01 -2.3215825833997D-01
    25  2.4000000000000D-01  8.7980919835841D-01 -2.3628818886085D-01
    26  2.5000000000000D-01  9.1093687477281D-01 -2.3979882184603D-01
    27  2.6000000000000D-01  9.4136584434261D-01 -2.4268836141975D-01
    28  2.7000000000000D-01  9.7106476758938D-01 -2.4495653658490D-01
    29  2.8000000000000D-01  1.0000021528296D+00 -2.4660444012014D-01
    30  2.9000000000000D-01  1.0281463975307D+00 -2.4763435626312D-01
    31  3.0000000000000D-01  1.0554658347481D+00 -2.4804957902824D-01
    32  3.1000000000000D-01  1.0819287847218D+00 -2.4785422312210D-01
    33  3.2000000000000D-01  1.1075036116867D+00 -2.4705302951947D-01
    34  3.3000000000000D-01  1.1321587859233D+00 -2.4565116784139D-01
    35  3.4000000000000D-01  1.1558629510437D+00 -2.4365403773732D-01
    36  3.5000000000000D-01  1.1785849964795D+00 -2.4106707151193D-01
    37  3.6000000000000D-01  1.2002941350990D+00 -2.3789554025464D-01
    38  3.7000000000000D-01  1.2209599858463D+00 -2.3414436572495D-01
    39  3.8000000000000D-01  1.2405526612573D+00 -2.2981794021909D-01
    40  3.9000000000000D-01  1.2590428596633D+00 -2.2491995659311D-01
    41  4.0000000000000D-01  1.2764019618522D+00 -2.1945325054407D-01
    42  4.1000000000000D-01  1.2926021319137D+00 -2.1341965715531D-01
    43  4.2000000000000D-01  1.3076164219475D+00 -2.0681988359383D-01
    44  4.3000000000000D-01  1.3214188802685D+00 -1.9965339970797D-01
    45  4.4000000000000D-01  1.3339846626962D+00 -1.9191834811402D-01
    46  4.5000000000000D-01  1.3452901464672D+00 -1.8361147518119D-01
    47  4.6000000000000D-01  1.3553130462646D+00 -1.7472808412673D-01
    48  4.7000000000000D-01  1.3640325318109D+00 -1.6526201122006D-01
    49  4.8000000000000D-01  1.3714293464260D+00 -1.5520562586687D-01
    50  4.9000000000000D-01  1.3774859259095D+00 -1.4454985510369D-01
    51  5.0000000000000D-01  1.3821865170650D+00 -1.3328423278348D-01
    52  5.1000000000000D-01  1.3855172951450D+00 -1.2139697347509D-01
    53  5.2000000000000D-01  1.3874664794614D+00 -1.0887507083592D-01
    54  5.3000000000000D-01  1.3880244463752D+00 -9.5704419952782D-02
    55  5.4000000000000D-01  1.3871838388505D+00 -8.1869962880833D-02
    56  5.5000000000000D-01  1.3849396717384D+00 -6.7355856349644D-02
    57  5.6000000000000D-01  1.3812894319386D+00 -5.2145660351360D-02
    58  5.7000000000000D-01  1.3762331725776D+00 -3.6222546079866D-02
    59  5.8000000000000D-01  1.3697736003363D+00 -1.9569521459710D-02
    60  5.9000000000000D-01  1.3619161550663D+00 -2.1696722845153D-03
    61  6.0000000000000D-01  1.3526690808423D+00  1.5993583211502D-02
    62  6.1000000000000D-01  1.3420434876179D+00  3.4936228703391D-02
    63  6.2000000000000D-01  1.3300534026790D+00  5.4673375553135D-02
    64  6.3000000000000D-01  1.3167158111227D+00  7.5218982648676D-02
    65  6.4000000000000D-01  1.3020506846360D+00  9.6585573035014D-02
    66  6.5000000000000D-01  1.2860809978980D+00  1.1878395013595D-01
    67  6.6000000000000D-01  1.2688327319941D+00  1.4182291639947D-01
    68  6.7000000000000D-01  1.2503348642969D+00  1.6570899720187D-01
    69  6.8000000000000D-01  1.2306193443513D+00  1.9044617281241D-01
    70  6.9000000000000D-01  1.2097210553838D+00  2.1603562115325D-01
    71  7.0000000000000D-01  1.1876777611559D+00  2.4247547398551D-01
    72  7.1000000000000D-01  1.1645300379779D+00  2.6976058901629D-01
    73  7.2000000000000D-01  1.1403211918145D+00  2.9788234024982D-01
    74  7.3000000000000D-01  1.1150971605249D+00  3.2682842870233D-01
    75  7.4000000000000D-01  1.0889064014019D+00  3.5658271536698D-01
    76  7.5000000000000D-01  1.0617997643009D+00  3.8712507805283D-01
    77  7.6000000000000D-01  1.0338303507763D+00  4.1843129343406D-01
    78  7.7000000000000D-01  1.0050533597747D+00  4.5047294533819D-01
    79  7.8000000000000D-01  9.7552592056632D-01  4.8321735997305D-01
    80  7.9000000000000D-01  9.4530691372538D-01  5.1662756845228D-01
    81  8.0000000000000D-01  9.1445678110307D-01  5.5066229662910D-01
    82  8.1000000000000D-01  8.8303732585960D-01  5.8527598189432D-01
    83  8.2000000000000D-01  8.5111150374547D-01  6.2041881624193D-01
    84  8.3000000000000D-01  8.1874320693611D-01  6.5603681456098D-01
    85  8.4000000000000D-01  7.8599704183090D-01  6.9207190678016D-01
    86  8.5000000000000D-01  7.5293810232469D-01  7.2846205217935D-01
    87  8.6000000000000D-01  7.1963174014548D-01  7.6514137389503D-01
    88  8.7000000000000D-01  6.8614333392411D-01  8.0204031139127D-01
    89  8.8000000000000D-01  6.5253805871989D-01  8.3908578845032D-01
    90  8.9000000000000D-01  6.1888065776725D-01  8.7620139406320D-01
    91  9.0000000000000D-01  5.8523521823244D-01  9.1330757347588D-01
    92  9.1000000000000D-01  5.5166495277403D-01  9.5032182657709D-01
    93  9.2000000000000D-01  5.1823198868538D-01  9.8715891080334D-01
    94  9.3000000000000D-01  4.8499716636048D-01  1.0237310457899D+00
    95  9.4000000000000D-01  4.5201984876545D-01  1.0599481171174D+00
    96  9.5000000000000D-01  4.1935774351658D-01  1.0957178766923D+00
    97  9.6000000000000D-01  3.8706673905836D-01  1.1309461375696D+00
    98  9.7000000000000D-01  3.5520075631101D-01  1.1655369613443D+00
    99  9.8000000000000D-01  3.2381161699914D-01  1.1993928366665D+00
   100  9.9000000000000D-01  2.9294892970179D-01  1.2324148478978D+00
   101  1.0000000000000D+00  2.6265999446485D-01  1.2645028334819D+00
   102  1.0100000000000D+00  2.3298972659799D-01  1.2955555342094D+00
   103  1.0200000000000D+00  2.0398060004060D-01  1.3254707322270D+00
   104  1.0300000000000D+00  1.7567261041449D-01  1.3541453823850D+00
   105  1.0400000000000D+00  1.4810325762752D-01  1.3814757382290D+00
   106  1.0500000000000D+00  1.2130754758088D-01  1.4073574758067D+00
   107  1.0600000000000D+00  9.5318012247150D-02  1.4316858192449D+00
   108  1.0700000000000D+00  7.0164747078149D-02  1.4543556728870D+00
   109  1.0800000000000D+00  4.5875464377455D-02  1.4752617656388D+00
   110  1.0900000000000D+00  2.2475560986338D-02  1.4942988139058D+00
   111  1.1000000000000D+00 -1.1801700346476D-05  1.5113617103353D+00
   112  1.1100000000000D+00 -2.1565607665739D-02  1.5263457462631D+00
   113  1.1200000000000D+00 -4.2166888711096D-02  1.5391468763772D+00
   114  1.1300000000000D+00 -6.1798622235815D-02  1.5496620346261D+00
   115  1.1400000000000D+00 -8.0445627412059D-02  1.5577895107909D+00
   116  1.1500000000000D+00 -9.8094463063718D-02  1.5634293974295D+00
   117  1.1600000000000D+00 -1.1473333070006D-01  1.5664841168917D+00
   118  1.1700000000000D+00 -1.3035198628585D-01  1.5668590379307D+00
   119  1.1800000000000D+00 -1.4494166443129D-01  1.5644631912240D+00
   120  1.1900000000000D+00 -1.5849501871171D-01  1.5592100923116D+00
   121  1.2000000000000D+00 -1.7100608173147D-01  1.5510186792963D+00
   122  1.2100000000000D+00 -1.8247024851540D-01  1.5398143719625D+00
   123  1.2200000000000D+00 -1.9288428658459D-01  1.5255302568723D+00
   124  1.2300000000000D+00 -2.0224637572544D-01  1.5081084007181D+00
   125  1.2400000000000D+00 -2.1055618014285D-01  1.4875012921261D+00
   126  1.2500000000000D+00 -2.1781495533308D-01  1.4636734097139D+00
   127  1.2600000000000D+00 -2.2402569110031D-01  1.4366029090287D+00
   128  1.2700000000000D+00 -2.2919329155445D-01  1.4062834178459D+00
   129  1.2800000000000D+00 -2.3332479251934D-01  1.3727259268356D+00
   130  1.2900000000000D+00 -2.3642961489545D-01  1.3359607527337D+00
   131  1.3000000000000D+00 -2.3851985189932D-01  1.2960395480860D+00
   132  1.3100000000000D+00 -2.3961058747506D-01  1.2530373281549D+00
   133  1.3200000000000D+00 -2.3972023988806D-01  1.2070544691854D+00
   134  1.3300000000000D+00 -2.3887092454409D-01  1.1582186324970D+00
   135  1.3400000000000D+00 -2.3708882833572D-01  1.1066865599936D+00
   136  1.3500000000000D+00 -2.3440458298932D-01  1.0526456633284D+00
   137  1.3600000000000D+00 -2.3085362709217D-01  9.9631533961288D-01
   138  1.3700000000000D+00 -2.2647654073467D-01  9.3794791860998D-01
   139  1.3800000000000D+00 -2.2131933246240D-01  8.7782912630152D-01
   140  1.3900000000000D+00 -2.1543366293624D-01  8.1627797196489D-01
   141  1.4000000000000D+00 -2.0887697509953D-01  7.5364589626015D-01
   142  1.4100000000000D+00 -2.0171250650388D-01  6.9031504584353D-01
   143  1.4200000000000D+00 -1.9400915401338D-01  6.2669551395837D-01
   144  1.4300000000000D+00 -1.8584114678880D-01  5.6322131878770D-01
   145  1.4400000000000D+00 -1.7728750076569D-01  5.0034497321288D-01
   146  1.4500000000000D+00 -1.6843119535951D-01  4.3853034592784D-01
   147  1.4600000000000D+00 -1.5935803153086D-01  3.7824360094089D-01
   148  1.4700000000000D+00 -1.5015509488306D-01  3.1994178017901D-01
   149  1.4800000000000D+00 -1.4090886161291D-01  2.6405950557981D-01
   150  1.4900000000000D+00 -1.3170252165828D-01  2.1099070324233D-01
   151  1.5000000000000D+00 -1.2261389273668D-01  1.6107576444485D-01
   152  1.5100000000000D+00 -1.1370943770998D-01  1.1456123584053D-01
   153  1.5200000000000D+00 -1.0504133035114D-01  7.1583165698165D-02
   154  1.5300000000000D+00 -9.6649132708953D-02  3.2188728550910D-02
   155  1.5400000000000D+00 -8.8562163477330D-02 -3.6409125616787D-03
   156  1.5500000000000D+00 -8.0806312123116D-02 -3.5937523739735D-02
   157  1.5600000000000D+00 -7.3404736808558D-02 -6.4739620660091D-02
   158  1.5700000000000D+00 -6.6372646148240D-02 -9.0130366582508D-02
   159  1.5800000000000D+00 -5.9722734372452D-02 -1.1219931936456D-01
   160  1.5900000000000D+00 -5.3478848132083D-02 -1.3094807543296D-01
   161  1.6000000000000D+00 -4.7655852359433D-02 -1.4643001848928D-01
   162  1.6100000000000D+00 -4.2241203900707D-02 -1.5887863066587D-01
   163  1.6200000000000D+00 -3.7222162650189D-02 -1.6851776300325D-01
   164  1.6300000000000D+00 -3.2600795661138D-02 -1.7545698841710D-01
   165  1.6400000000000D+00 -2.8375393539073D-02 -1.7982220882160D-01
   166  1.6500000000000D+00 -2.4534728786975D-02 -1.8179644750046D-01
   167  1.6600000000000D+00 -2.1065580974429D-02 -1.8156746776287D-01
   168  1.6700000000000D+00 -1.7953744937541D-02 -1.7932116536583D-01
   169  1.6800000000000D+00 -1.5182714795070D-02 -1.7525133620574D-01
   170  1.6900000000000D+00 -1.2734114035425D-02 -1.6955719958199D-01
   171  1.7000000000000D+00 -1.0588139444045D-02 -1.6244085559627D-01
   172  1.7100000000000D+00 -8.7238176074350D-03 -1.5410607501833D-01
   173  1.7200000000000D+00 -7.1193015770383D-03 -1.4475682196667D-01
   174  1.7300000000000D+00 -5.7521686435359D-03 -1.3459577726158D-01
   175  1.7400000000000D+00 -4.5997171797221D-03 -1.2382287177830D-01
   176  1.7500000000000D+00 -3.6392603460351D-03 -1.1263384009071D-01
   177  1.7600000000000D+00 -2.8484142368134D-03 -1.0121880566614D-01
   178  1.7700000000000D+00 -2.2053787785377D-03 -8.9760905541503D-02
   179  1.7800000000000D+00 -1.6892084467544D-03 -7.8434968104070D-02
   180  1.7900000000000D+00 -1.2800720656560D-03 -6.7406247463930D-02
   181  1.8000000000000D+00 -9.5949785344096D-04 -5.6829232308524D-02
   182  1.8100000000000D+00 -7.1060443999602D-04 -4.6846525840413D-02
   183  1.8200000000000D+00 -5.1831294218408D-04 -3.7587819768849D-02
   184  1.8300000000000D+00 -3.6954207841321D-04 -2.9168953048233D-02
   185  1.8400000000000D+00 -2.5342666966074D-04 -2.1696453379899D-02
   186  1.8500000000000D+00 -1.6128767822889D-04 -1.5245156112237D-02
   187  1.8600000000000D+00 -8.7157561932523D-05 -9.8603713556118D-03
   188  1.8700000000000D+00 -2.7293898506062D-05 -5.6370505399350D-03
   189  1.8800000000000D+00  2.0410903631143D-05 -2.7006548189523D-03
   190  1.8900000000000D+00  5.3829840607219D-05 -1.0149364922848D-03
   191  1.9000000000000D+00  6.2719501935677D-05 -2.4156747924162D-04
   192  1.9100000000000D+00  3.9389654771797D-05  1.2913388308956D-05
   193  1.9200000000000D+00  7.6642169465872D-06  1.4795274251146D-05
   194  1.9300000000000D+00 -7.0505916370415D-06 -1.9193758095214D-05
   195  1.9400000000000D+00 -4.6786442533325D-06 -1.5619903153385D-05
   196  1.9500000000000D+00  9.9448957588435D-07  1.5676589009000D-06
   197  1.9600000000000D+00  1.5009622216080D-06  2.8151831683904D-06
   198  1.9700000000000D+00 -1.9871906705588D-08  7.5598468984674D-08
   199  1.9800000000000D+00 -1.7725379976943D-07  6.7432461730091D-07
   200  1.9900000000000D+00 -6.3526333380168D-08  2.4167250857716D-07
   201  2.0000000000000D+00  0.0000000000000D+00  0.0000000000000D+00
   202  2.0100000000000D+00  0.0000000000000D+00  0.0000000000000D+00
   203  2.0200000000000D+00  0.0000000000000D+00  0.0000000000000D+00
   204  2.0300000000000D+00  0.0000000000000D+00  0.0000000000000D+00
   205  2.0400000000000D+00  0.0000000000000D+00  0.0000000000000D+00
   206  2.0500000000000D+00  0.0000000000000D+00  0.0000000000000D+00
   207  2.0600000000000D+00  0.0000000000000D+00  0.0000000000000D+00
   208  2.0700000000000D+00  0.0000000000000D+00  0.0000000000000D+00
   209  2.0800000000000D+00  0.0000000000000D+00  0.0000000000000D+00
   210  2.0900000000000D+00  0.0000000000000D+00  0.0000000000000D+00
   211  2.1000000000000D+00  0.0000000000000D+00  0.0000000000000D+00
   212  2.1100000000000D+00  0.0000000000000D+00  0.0000000000000D+00
   213  2.1200000000000D+00  0.0000000000000D+00  0.0000000000000D+00
   214  2.1300000000000D+00  0.0000000000000D+00  0.0000000000000D+00
   215  2.1400000000000D+00  0.0000000000000D+00  0.0000000000000D+00
   216  2.1500000000000D+00  0.0000000000000D+00  0.0000000000000D+00
   217  2.1600000000000D+00  0.0000000000000D+00  0.0000000000000D+00
   218  2.1700000000000D+00  0.0000000000000D+00  0.0000000000000D+00
   219  2.1800000000000D+00  0.0000000000000D+00  0.0000000000000D+00
   220  2.1900000000000D+00  0.0000000000000D+00  0.0000000000000D+00
   221  2.2000000000000D+00  0.0000000000000D+00  0.0000000000000D+00
   222  2.2100000000000D+00  0.0000000000000D+00  0.0000000000000D+00
   223  2.2200000000000D+00  0.0000000000000D+00  0.0000000000000D+00
   224  2.2300000000000D+00  0.0000000000000D+00  0.0000000000000D+00
   225  2.2400000000000D+00  0.0000000000000D+00  0.0000000000000D+00
   226  2.2500000000000D+00  0.0000000000000D+00  0.0000000000000D+00
   227  2.2600000000000D+00  0.0000000000000D+00  0.0000000000000D+00
   228  2.2700000000000D+00  0.0000000000000D+00  0.0000000000000D+00
   229  2.2800000000000D+00  0.0000000000000D+00  0.0000000000000D+00
   230  2.2900000000000D+00  0.0000000000000D+00  0.0000000000000D+00
   231  2.3000000000000D+00  0.0000000000000D+00  0.0000000000000D+00
   232  2.3100000000000D+00  0.0000000000000D+00  0.0000000000000D+00
   233  2.3200000000000D+00  0.0000000000000D+00  0.0000000000000D+00
   234  2.3300000000000D+00  0.0000000000000D+00  0.0000000000000D+00
   235  2.3400000000000D+00  0.0000000000000D+00  0.0000000000000D+00
   236  2.3500000000000D+00  0.0000000000000D+00  0.0000000000000D+00
   237  2.3600000000000D+00  0.0000000000000D+00  0.0000000000000D+00
   238  2.3700000000000D+00  0.0000000000000D+00  0.0000000000000D+00
   239  2.3800000000000D+00  0.0000000000000D+00  0.0000000000000D+00
   240  2.3900000000000D+00  0.0000000000000D+00  0.0000000000000D+00
   241  2.4000000000000D+00  0.0000000000000D+00  0.0000000000000D+00
   242  2.4100000000000D+00  0.0000000000000D+00  0.0000000000000D+00
   243  2.4200000000000D+00  0.0000000000000D+00  0.0000000000000D+00
   244  2.4300000000000D+00  0.0000000000000D+00  0.0000000000000D+00
   245  2.4400000000000D+00  0.0000000000000D+00  0.0000000000000D+00
   246  2.4500000000000D+00  0.0000000000000D+00  0.0000000000000D+00
   247  2.4600000000000D+00  0.0000000000000D+00  0.0000000000000D+00
   248  2.4700000000000D+00  0.0000000000000D+00  0.0000000000000D+00
   249  2.4800000000000D+00  0.0000000000000D+00  0.0000000000000D+00
   250  2.4900000000000D+00  0.0000000000000D+00  0.0000000000000D+00
   251  2.5000000000000D+00  0.0000000000000D+00  0.0000000000000D+00
   252  2.5100000000000D+00  0.0000000000000D+00  0.0000000000000D+00
   253  2.5200000000000D+00  0.0000000000000D+00  0.0000000000000D+00
   254  2.5300000000000D+00  0.0000000000000D+00  0.0000000000000D+00
   255  2.5400000000000D+00  0.0000000000000D+00  0.0000000000000D+00
   256  2.5500000000000D+00  0.0000000000000D+00  0.0000000000000D+00
   257  2.5600000000000D+00  0.0000000000000D+00  0.0000000000000D+00
   258  2.5700000000000D+00  0.0000000000000D+00  0.0000000000000D+00
   259  2.5800000000000D+00  0.0000000000000D+00  0.0000000000000D+00
   260  2.5900000000000D+00  0.0000000000000D+00  0.0000000000000D+00
   261  2.6000000000000D+00  0.0000000000000D+00  0.0000000000000D+00
   262  2.6100000000000D+00  0.0000000000000D+00  0.0000000000000D+00
   263  2.6200000000000D+00  0.0000000000000D+00  0.0000000000000D+00
   264  2.6300000000000D+00  0.0000000000000D+00  0.0000000000000D+00
   265  2.6400000000000D+00  0.0000000000000D+00  0.0000000000000D+00
   266  2.6500000000000D+00  0.0000000000000D+00  0.0000000000000D+00
   267  2.6600000000000D+00  0.0000000000000D+00  0.0000000000000D+00
   268  2.6700000000000D+00  0.0000000000000D+00  0.0000000000000D+00
   269  2.6800000000000D+00  0.0000000000000D+00  0.0000000000000D+00
   270  2.6900000000000D+00  0.0000000000000D+00  0.0000000000000D+00
   271  2.7000000000000D+00  0.0000000000000D+00  0.0000000000000D+00
   272  2.7100000000000D+00  0.0000000000000D+00  0.0000000000000D+00
   273  2.7200000000000D+00  0.0000000000000D+00  0.0000000000000D+00
   274  2.7300000000000D+00  0.0000000000000D+00  0.0000000000000D+00
   275  2.7400000000000D+00  0.0000000000000D+00  0.0000000000000D+00
   276  2.7500000000000D+00  0.0000000000000D+00  0.0000000000000D+00
   277  2.7600000000000D+00  0.0000000000000D+00  0.0000000000000D+00
   278  2.7700000000000D+00  0.0000000000000D+00  0.0000000000000D+00
   279  2.7800000000000D+00  0.0000000000000D+00  0.0000000000000D+00
   280  2.7900000000000D+00  0.0000000000000D+00  0.0000000000000D+00
   281  2.8000000000000D+00  0.0000000000000D+00  0.0000000000000D+00
   282  2.8100000000000D+00  0.0000000000000D+00  0.0000000000000D+00
   283  2.8200000000000D+00  0.0000000000000D+00  0.0000000000000D+00
   284  2.8300000000000D+00  0.0000000000000D+00  0.0000000000000D+00
   285  2.8400000000000D+00  0.0000000000000D+00  0.0000000000000D+00
   286  2.8500000000000D+00  0.0000000000000D+00  0.0000000000000D+00
   287  2.8600000000000D+00  0.0000000000000D+00  0.0000000000000D+00
   288  2.8700000000000D+00  0.0000000000000D+00  0.0000000000000D+00
   289  2.8800000000000D+00  0.0000000000000D+00  0.0000000000000D+00
   290  2.8900000000000D+00  0.0000000000000D+00  0.0000000000000D+00
   291  2.9000000000000D+00  0.0000000000000D+00  0.0000000000000D+00
   292  2.9100000000000D+00  0.0000000000000D+00  0.0000000000000D+00
   293  2.9200000000000D+00  0.0000000000000D+00  0.0000000000000D+00
   294  2.9300000000000D+00  0.0000000000000D+00  0.0000000000000D+00
   295  2.9400000000000D+00  0.0000000000000D+00  0.0000000000000D+00
   296  2.9500000000000D+00  0.0000000000000D+00  0.0000000000000D+00
   297  2.9600000000000D+00  0.0000000000000D+00  0.0000000000000D+00
   298  2.9700000000000D+00  0.0000000000000D+00  0.0000000000000D+00
   299  2.9800000000000D+00  0.0000000000000D+00  0.0000000000000D+00
   300  2.9900000000000D+00  0.0000000000000D+00  0.0000000000000D+00
   301  3.0000000000000D+00  0.0000000000000D+00  0.0000000000000D+00
   302  3.0100000000000D+00  0.0000000000000D+00  0.0000000000000D+00
   303  3.0200000000000D+00  0.0000000000000D+00  0.0000000000000D+00
   304  3.0300000000000D+00  0.0000000000000D+00  0.0000000000000D+00
   305  3.0400000000000D+00  0.0000000000000D+00  0.0000000000000D+00
   306  3.0500000000000D+00  0.0000000000000D+00  0.0000000000000D+00
   307  3.0600000000000D+00  0.0000000000000D+00  0.0000000000000D+00
   308  3.0700000000000D+00  0.0000000000000D+00  0.0000000000000D+00
   309  3.0800000000000D+00  0.0000000000000D+00  0.0000000000000D+00
   310  3.0900000000000D+00  0.0000000000000D+00  0.0000000000000D+00
   311  3.1000000000000D+00  0.0000000000000D+00  0.0000000000000D+00
   312  3.1100000000000D+00  0.0000000000000D+00  0.0000000000000D+00
   313  3.1200000000000D+00  0.0000000000000D+00  0.0000000000000D+00
   314  3.1300000000000D+00  0.0000000000000D+00  0.0000000000000D+00
   315  3.1400000000000D+00  0.0000000000000D+00  0.0000000000000D+00
   316  3.1500000000000D+00  0.0000000000000D+00  0.0000000000000D+00
   317  3.1600000000000D+00  0.0000000000000D+00  0.0000000000000D+00
   318  3.1700000000000D+00  0.0000000000000D+00  0.0000000000000D+00
   319  3.1800000000000D+00  0.0000000000000D+00  0.0000000000000D+00
   320  3.1900000000000D+00  0.0000000000000D+00  0.0000000000000D+00
   321  3.2000000000000D+00  0.0000000000000D+00  0.0000000000000D+00
   322  3.2100000000000D+00  0.0000000000000D+00  0.0000000000000D+00
   323  3.2200000000000D+00  0.0000000000000D+00  0.0000000000000D+00
   324  3.2300000000000D+00  0.0000000000000D+00  0.0000000000000D+00
   325  3.2400000000000D+00  0.0000000000000D+00  0.0000000000000D+00
   326  3.2500000000000D+00  0.0000000000000D+00  0.0000000000000D+00
   327  3.2600000000000D+00  0.0000000000000D+00  0.0000000000000D+00
   328  3.2700000000000D+00  0.0000000000000D+00  0.0000000000000D+00
   329  3.2800000000000D+00  0.0000000000000D+00  0.0000000000000D+00
   330  3.2900000000000D+00  0.0000000000000D+00  0.0000000000000D+00
   331  3.3000000000000D+00  0.0000000000000D+00  0.0000000000000D+00
   332  3.3100000000000D+00  0.0000000000000D+00  0.0000000000000D+00
   333  3.3200000000000D+00  0.0000000000000D+00  0.0000000000000D+00
   334  3.3300000000000D+00  0.0000000000000D+00  0.0000000000000D+00
   335  3.3400000000000D+00  0.0000000000000D+00  0.0000000000000D+00
   336  3.3500000000000D+00  0.0000000000000D+00  0.0000000000000D+00
   337  3.3600000000000D+00  0.0000000000000D+00  0.0000000000000D+00
   338  3.3700000000000D+00  0.0000000000000D+00  0.0000000000000D+00
   339  3.3800000000000D+00  0.0000000000000D+00  0.0000000000000D+00
   340  3.3900000000000D+00  0.0000000000000D+00  0.0000000000000D+00
   341  3.4000000000000D+00  0.0000000000000D+00  0.0000000000000D+00
   342  3.4100000000000D+00  0.0000000000000D+00  0.0000000000000D+00
   343  3.4200000000000D+00  0.0000000000000D+00  0.0000000000000D+00
   344  3.4300000000000D+00  0.0000000000000D+00  0.0000000000000D+00
   345  3.4400000000000D+00  0.0000000000000D+00  0.0000000000000D+00
   346  3.4500000000000D+00  0.0000000000000D+00  0.0000000000000D+00
   347  3.4600000000000D+00  0.0000000000000D+00  0.0000000000000D+00
   348  3.4700000000000D+00  0.0000000000000D+00  0.0000000000000D+00
   349  3.4800000000000D+00  0.0000000000000D+00  0.0000000000000D+00
   350  3.4900000000000D+00  0.0000000000000D+00  0.0000000000000D+00
   351  3.5000000000000D+00  0.0000000000000D+00  0.0000000000000D+00
   352  3.5100000000000D+00  0.0000000000000D+00  0.0000000000000D+00
   353  3.5200000000000D+00  0.0000000000000D+00  0.0000000000000D+00
   354  3.5300000000000D+00  0.0000000000000D+00  0.0000000000000D+00
   355  3.5400000000000D+00  0.0000000000000D+00  0.0000000000000D+00
   356  3.5500000000000D+00  0.0000000000000D+00  0.0000000000000D+00
   357  3.5600000000000D+00  0.0000000000000D+00  0.0000000000000D+00
   358  3.5700000000000D+00  0.0000000000000D+00  0.0000000000000D+00
   359  3.5800000000000D+00  0.0000000000000D+00  0.0000000000000D+00
   360  3.5900000000000D+00  0.0000000000000D+00  0.0000000000000D+00
   361  3.6000000000000D+00  0.0000000000000D+00  0.0000000000000D+00
   362  3.6100000000000D+00  0.0000000000000D+00  0.0000000000000D+00
   363  3.6200000000000D+00  0.0000000000000D+00  0.0000000000000D+00
   364  3.6300000000000D+00  0.0000000000000D+00  0.0000000000000D+00
   365  3.6400000000000D+00  0.0000000000000D+00  0.0000000000000D+00
   366  3.6500000000000D+00  0.0000000000000D+00  0.0000000000000D+00
   367  3.6600000000000D+00  0.0000000000000D+00  0.0000000000000D+00
   368  3.6700000000000D+00  0.0000000000000D+00  0.0000000000000D+00
   369  3.6800000000000D+00  0.0000000000000D+00  0.0000000000000D+00
   370  3.6900000000000D+00  0.0000000000000D+00  0.0000000000000D+00
   371  3.7000000000000D+00  0.0000000000000D+00  0.0000000000000D+00
   372  3.7100000000000D+00  0.0000000000000D+00  0.0000000000000D+00
   373  3.7200000000000D+00  0.0000000000000D+00  0.0000000000000D+00
   374  3.7300000000000D+00  0.0000000000000D+00  0.0000000000000D+00
   375  3.7400000000000D+00  0.0000000000000D+00  0.0000000000000D+00
   376  3.7500000000000D+00  0.0000000000000D+00  0.0000000000000D+00
   377  3.7600000000000D+00  0.0000000000000D+00  0.0000000000000D+00
   378  3.7700000000000D+00  0.0000000000000D+00  0.0000000000000D+00
   379  3.7800000000000D+00  0.0000000000000D+00  0.0000000000000D+00
   380  3.7900000000000D+00  0.0000000000000D+00  0.0000000000000D+00
   381  3.8000000000000D+00  0.0000000000000D+00  0.0000000000000D+00
   382  3.8100000000000D+00  0.0000000000000D+00  0.0000000000000D+00
   383  3.8200000000000D+00  0.0000000000000D+00  0.0000000000000D+00
   384  3.8300000000000D+00  0.0000000000000D+00  0.0000000000000D+00
   385  3.8400000000000D+00  0.0000000000000D+00  0.0000000000000D+00
   386  3.8500000000000D+00  0.0000000000000D+00  0.0000000000000D+00
   387  3.8600000000000D+00  0.0000000000000D+00  0.0000000000000D+00
   388  3.8700000000000D+00  0.0000000000000D+00  0.0000000000000D+00
   389  3.8800000000000D+00  0.0000000000000D+00  0.0000000000000D+00
   390  3.8900000000000D+00  0.0000000000000D+00  0.0000000000000D+00
   391  3.9000000000000D+00  0.0000000000000D+00  0.0000000000000D+00
   392  3.9100000000000D+00  0.0000000000000D+00  0.0000000000000D+00
   393  3.9200000000000D+00  0.0000000000000D+00  0.0000000000000D+00
   394  3.9300000000000D+00  0.0000000000000D+00  0.0000000000000D+00
   395  3.9400000000000D+00  0.0000000000000D+00  0.0000000000000D+00
   396  3.9500000000000D+00  0.0000000000000D+00  0.0000000000000D+00
   397  3.9600000000000D+00  0.0000000000000D+00  0.0000000000000D+00
   398  3.9700000000000D+00  0.0000000000000D+00  0.0000000000000D+00
   399  3.9800000000000D+00  0.0000000000000D+00  0.0000000000000D+00
   400  3.9900000000000D+00  0.0000000000000D+00  0.0000000000000D+00
   401  4.0000000000000D+00  0.0000000000000D+00  0.0000000000000D+00
   402  4.0100000000000D+00  0.0000000000000D+00  0.0000000000000D+00
   403  4.0200000000000D+00  0.0000000000000D+00  0.0000000000000D+00
   404  4.0300000000000D+00  0.0000000000000D+00  0.0000000000000D+00
   405  4.0400000000000D+00  0.0000000000000D+00  0.0000000000000D+00
   406  4.0500000000000D+00  0.0000000000000D+00  0.0000000000000D+00
   407  4.0600000000000D+00  0.0000000000000D+00  0.0000000000000D+00
   408  4.0700000000000D+00  0.0000000000000D+00  0.0000000000000D+00
   409  4.0800000000000D+00  0.0000000000000D+00  0.0000000000000D+00
   410  4.0900000000000D+00  0.0000000000000D+00  0.0000000000000D+00
   411  4.1000000000000D+00  0.0000000000000D+00  0.0000000000000D+00
   412  4.1100000000000D+00  0.0000000000000D+00  0.0000000000000D+00
   413  4.1200000000000D+00  0.0000000000000D+00  0.0000000000000D+00
   414  4.1300000000000D+00  0.0000000000000D+00  0.0000000000000D+00
   415  4.1400000000000D+00  0.0000000000000D+00  0.0000000000000D+00
   416  4.1500000000000D+00  0.0000000000000D+00  0.0000000000000D+00
   417  4.1600000000000D+00  0.0000000000000D+00  0.0000000000000D+00
   418  4.1700000000000D+00  0.0000000000000D+00  0.0000000000000D+00
   419  4.1800000000000D+00  0.0000000000000D+00  0.0000000000000D+00
   420  4.1900000000000D+00  0.0000000000000D+00  0.0000000000000D+00
   421  4.2000000000000D+00  0.0000000000000D+00  0.0000000000000D+00
   422  4.2100000000000D+00  0.0000000000000D+00  0.0000000000000D+00