Re    ONCVPSP-3.3.0  r_core=   1.60865   1.60865   1.60865   2.01786
     75.0000     15.0000      220408    zatom,zion,pspd
     8       2   3     4   600     0    pspcod,pspxc,lmax,lloc,mmax,r2well
  5.99000000  0.00000000  0.00000000    rchrg fchrg qchrg
     2     2     2     2     0    nproj
     1     1           extension_switch
   0                         6.6689600968177D+00 -6.2132495760973D-01
     1  0.0000000000000D+00  8.6570361990113D-11 -2.0655097632272D-09
     2  1.0000000000000D-02  5.6879764917942D-02  5.9446545218763D-02
     3  2.0000000000000D-02  1.1368262238453D-01  1.1849087137288D-01
     4  3.0000000000000D-02  1.7033166921522D-01  1.7673462065006D-01
     5  4.0000000000000D-02  2.2675001240458D-01  2.3378711312505D-01
     6  5.0000000000000D-02  2.8286077830724D-01  2.8926907469058D-01
     7  6.0000000000000D-02  3.3858712666634D-01  3.4281623325620D-01
     8  7.0000000000000D-02  3.9385227100273D-01  3.9408274175671D-01
     9  8.0000000000000D-02  4.4857950679113D-01  4.4274438857792D-01
    10  9.0000000000000D-02  5.0269224874365D-01  4.8850155854322D-01
    11  1.0000000000000D-01  5.5611407839592D-01  5.3108191058217D-01
    12  1.1000000000000D-01  6.0876880304917D-01  5.7024274158565D-01
    13  1.2000000000000D-01  6.6058052696428D-01  6.0577300970279D-01
    14  1.3000000000000D-01  7.1147373553284D-01  6.3749499440745D-01
    15  1.4000000000000D-01  7.6137339296757D-01  6.6526557501038D-01
    16  1.5000000000000D-01  8.1020505386237D-01  6.8897711386446D-01
    17  1.6000000000000D-01  8.5789498877287D-01  7.0855793525204D-01
    18  1.7000000000000D-01  9.0437032376412D-01  7.2397239579913D-01
    19  1.8000000000000D-01  9.4955919366499D-01  7.3522054717257D-01
    20  1.9000000000000D-01  9.9339090856232D-01  7.4233739672700D-01
    21  2.0000000000000D-01  1.0357961328629D+00  7.4539177661819D-01
    22  2.1000000000000D-01  1.0767070760516D+00  7.4448483663115D-01
    23  2.2000000000000D-01  1.1160576940824D+00  7.3974818052829D-01
    24  2.3000000000000D-01  1.1537839001536D+00  7.3134167005110D-01
    25  2.4000000000000D-01  1.1898237834504D+00  7.1945092475299D-01
    26  2.5000000000000D-01  1.2241178342777D+00  7.0428454955628D-01
    27  2.6000000000000D-01  1.2566091738658D+00  6.8607112526278D-01
    28  2.7000000000000D-01  1.2872437870072D+00  6.6505600016696D-01
    29  2.8000000000000D-01  1.3159707555774D+00  6.4149792338488D-01
    30  2.9000000000000D-01  1.3427424909091D+00  6.1566556249026D-01
    31  3.0000000000000D-01  1.3675149629249D+00  5.8783394951539D-01
    32  3.1000000000000D-01  1.3902479238965D+00  5.5828090030851D-01
    33  3.2000000000000D-01  1.4109051246779D+00  5.2728345262808D-01
    34  3.3000000000000D-01  1.4294545212704D+00  4.9511436818988D-01
    35  3.4000000000000D-01  1.4458684696080D+00  4.6203874316396D-01
    36  3.5000000000000D-01  1.4601239065036D+00  4.2831077035206D-01
    37  3.6000000000000D-01  1.4722025147792D+00  3.9417069447306D-01
    38  3.7000000000000D-01  1.4820908706999D+00  3.5984199966342D-01
    39  3.8000000000000D-01  1.4897805719588D+00  3.2552886548689D-01
    40  3.9000000000000D-01  1.4952683445980D+00  2.9141392447230D-01
    41  4.0000000000000D-01  1.4985561274202D+00  2.5765635049917D-01
    42  4.1000000000000D-01  1.4996511326195D+00  2.2439030326671D-01
    43  4.2000000000000D-01  1.4985658815615D+00  1.9172374966299D-01
    44  4.3000000000000D-01  1.4953182148485D+00  1.5973767814503D-01
    45  4.4000000000000D-01  1.4899312760315D+00  1.2848571730545D-01
    46  4.5000000000000D-01  1.4824334685573D+00  9.7994164693354D-02
    47  4.6000000000000D-01  1.4728583857800D+00  6.8262426736875D-02
    48  4.7000000000000D-01  1.4612447141060D+00  3.9263865345663D-02
    49  4.8000000000000D-01  1.4476361095862D+00  1.0947041516893D-02
    50  4.9000000000000D-01  1.4320810485109D+00 -1.6762658909496D-02
    51  5.0000000000000D-01  1.4146326528012D+00 -4.3961037234696D-02
    52  5.1000000000000D-01  1.3953484912251D+00 -7.0762756345027D-02
    53  5.2000000000000D-01  1.3742903576869D+00 -9.7298706903658D-02
    54  5.3000000000000D-01  1.3515240280523D+00 -1.2371309881974D-01
    55  5.4000000000000D-01  1.3271189971714D+00 -1.5016031539461D-01
    56  5.5000000000000D-01  1.3011481979403D+00 -1.7680157098198D-01
    57  5.6000000000000D-01  1.2736877044090D+00 -2.0380141596335D-01
    58  5.7000000000000D-01  1.2448164210875D+00 -2.3132413529387D-01
    59  5.8000000000000D-01  1.2146157607230D+00 -2.5953008876964D-01
    60  5.9000000000000D-01  1.1831693129215D+00 -2.8857204249480D-01
    61  6.0000000000000D-01  1.1505625060639D+00 -3.1859154174527D-01
    62  6.1000000000000D-01  1.1168822650129D+00 -3.4971537553183D-01
    63  6.2000000000000D-01  1.0822166671374D+00 -3.8205218264984D-01
    64  6.3000000000000D-01  1.0466545991732D+00 -4.1568924785765D-01
    65  6.4000000000000D-01  1.0102854174154D+00 -4.5068953506448D-01
    66  6.5000000000000D-01  9.7319861368372D-01 -4.8708900205387D-01
    67  6.6000000000000D-01  9.3548348941999D-01 -5.2489423831314D-01
    68  6.7000000000000D-01  8.9722884017778D-01 -5.6408046404575D-01
    69  6.8000000000000D-01  8.5852265263470D-01 -6.0458992444375D-01
    70  6.9000000000000D-01  8.1945181610965D-01 -6.4633070878924D-01
    71  7.0000000000000D-01  7.8010185039887D-01 -6.8917601905785D-01
    72  7.1000000000000D-01  7.4055665155621D-01 -7.3296390740457D-01
    73  7.2000000000000D-01  7.0089825704062D-01 -7.7749749633859D-01
    74  7.3000000000000D-01  6.6120663143447D-01 -8.2254568952486D-01
    75  7.4000000000000D-01  6.2155947370824D-01 -8.6784437515220D-01
    76  7.5000000000000D-01  5.8203204676853D-01 -9.1309811767141D-01
    77  7.6000000000000D-01  5.4269702978190D-01 -9.5798232754143D-01
    78  7.7000000000000D-01  5.0362439351947D-01 -1.0021458924926D+00
    79  7.8000000000000D-01  4.6488129871949D-01 -1.0452142478159D+00
    80  7.9000000000000D-01  4.2653201721841D-01 -1.0867928573323D+00
    81  8.0000000000000D-01  3.8863787536127D-01 -1.1264710711509D+00
    82  8.1000000000000D-01  3.5125721896952D-01 -1.1638263210731D+00
    83  8.2000000000000D-01  3.1444539892257D-01 -1.1984286096594D+00
    84  8.3000000000000D-01  2.7825477620152D-01 -1.2298452445943D+00
    85  8.4000000000000D-01  2.4273474505060D-01 -1.2576457661195D+00
    86  8.5000000000000D-01  2.0793177273781D-01 -1.2814070120143D+00
    87  8.6000000000000D-01  1.7388945424212D-01 -1.3007182619309D+00
    88  8.7000000000000D-01  1.4064858006222D-01 -1.3151864008799D+00
    89  8.8000000000000D-01  1.0824721523352D-01 -1.3244410403393D+00
    90  8.9000000000000D-01  7.6720787555984D-02 -1.3281395348578D+00
    91  9.0000000000000D-01  4.6102182978023D-02 -1.3259718321559D+00
    92  9.1000000000000D-01  1.6421846049820D-02 -1.3176650955957D+00
    93  9.2000000000000D-01 -1.2292116644469D-02 -1.3029880395097D+00
    94  9.3000000000000D-01 -4.0013832143907D-02 -1.2817549202212D+00
    95  9.4000000000000D-01 -6.6719557876343D-02 -1.2538291286434D+00
    96  9.5000000000000D-01 -9.2387581475660D-02 -1.2191263341058D+00
    97  9.6000000000000D-01 -1.1699812549351D-01 -1.1776171334482D+00
    98  9.7000000000000D-01 -1.4053325872539D-01 -1.1293291643757D+00
    99  9.8000000000000D-01 -1.6297681572140D-01 -1.0743486477238D+00
   100  9.9000000000000D-01 -1.8431432588713D-01 -1.0128213292558D+00
   101  1.0000000000000D+00 -2.0453295339280D-01 -9.4495279813922D-01
   102  1.0100000000000D+00 -2.2362144890783D-01 -8.7100816608250D-01
   103  1.0200000000000D+00 -2.4157011396200D-01 -7.9131109823570D-01
   104  1.0300000000000D+00 -2.5837077850291D-01 -7.0624219446211D-01
   105  1.0400000000000D+00 -2.7401679200045D-01 -6.1623672654844D-01
   106  1.0500000000000D+00 -2.8850302818724D-01 -5.2178174509399D-01
   107  1.0600000000000D+00 -3.0182590329872D-01 -4.2341257674938D-01
   108  1.0700000000000D+00 -3.1398340743069D-01 -3.2170873991211D-01
   109  1.0800000000000D+00 -3.2497514838607D-01 -2.1728931433408D-01
   110  1.0900000000000D+00 -3.3480240718013D-01 -1.1080780605085D-01
   111  1.1000000000000D+00 -3.4346820412085D-01 -2.9465563782937D-03
   112  1.1100000000000D+00 -3.5097737419627D-01  1.0558925104298D-01
   113  1.1200000000000D+00 -3.5733665030038D-01  2.1407792556442D-01
   114  1.1300000000000D+00 -3.6255475266667D-01  3.2178788318554D-01
   115  1.1400000000000D+00 -3.6664248272317D-01  4.2798447035518D-01
   116  1.1500000000000D+00 -3.6961281944435D-01  5.3193692620803D-01
   117  1.1600000000000D+00 -3.7148101618404D-01  6.3292540937055D-01
   118  1.1700000000000D+00 -3.7226469589840D-01  7.3024801381289D-01
   119  1.1800000000000D+00 -3.7198394260414D-01  8.2322769698999D-01
   120  1.1900000000000D+00 -3.7066138690026D-01  9.1121904374899D-01
   121  1.2000000000000D+00 -3.6832228340953D-01  9.9361479103851D-01
   122  1.2100000000000D+00 -3.6499457799096D-01  1.0698520387218D+00
   123  1.2200000000000D+00 -3.6070896267047D-01  1.1394180757408D+00
   124  1.2300000000000D+00 -3.5549891634302D-01  1.2018557545722D+00
   125  1.2400000000000D+00 -3.4940072937870D-01  1.2567683498114D+00
   126  1.2500000000000D+00 -3.4245351042140D-01  1.3038238422011D+00
   127  1.2600000000000D+00 -3.3469917390465D-01  1.3427585771829D+00
   128  1.2700000000000D+00 -3.2618240692621D-01  1.3733802508918D+00
   129  1.2800000000000D+00 -3.1695061431758D-01  1.3955701829840D+00
   130  1.2900000000000D+00 -3.0705384113702D-01  1.4092848481919D+00
   131  1.3000000000000D+00 -2.9654467188510D-01  1.4145566407107D+00
   132  1.3100000000000D+00 -2.8547810601943D-01  1.4114938544478D+00
   133  1.3200000000000D+00 -2.7391140984633D-01  1.4002798777906D+00
   134  1.3300000000000D+00 -2.6190394479726D-01  1.3811715993720D+00
   135  1.3400000000000D+00 -2.4951697258034D-01  1.3544970364330D+00
   136  1.3500000000000D+00 -2.3681343814686D-01  1.3206522111761D+00
   137  1.3600000000000D+00 -2.2385773116091D-01  1.2800972928069D+00
   138  1.3700000000000D+00 -2.1071542753527D-01  1.2333520499327D+00
   139  1.3800000000000D+00 -1.9745301255978D-01  1.1809906567664D+00
   140  1.3900000000000D+00 -1.8413758718162D-01  1.1236358976819D+00
   141  1.4000000000000D+00 -1.7083655983624D-01  1.0619528403421D+00
   142  1.4100000000000D+00 -1.5761732573809D-01  9.9664203263541D-01
   143  1.4200000000000D+00 -1.4454693622004D-01  9.2843229944747D-01
   144  1.4300000000000D+00 -1.3169176074637D-01  8.5807321646252D-01
   145  1.4400000000000D+00 -1.1911714412872D-01  7.8632733514511D-01
   146  1.4500000000000D+00 -1.0688706202423D-01  7.1396225011153D-01
   147  1.4600000000000D+00 -9.5063777398749D-02  6.4174258781851D-01
   148  1.4700000000000D+00 -8.3707501084785D-02  5.7042200931721D-01
   149  1.4800000000000D+00 -7.2876059220956D-02  5.0073530962425D-01
   150  1.4900000000000D+00 -6.2624570765197D-02  4.3339070815233D-01
   151  1.5000000000000D+00 -5.3005137587117D-02  3.6906240498093D-01
   152  1.5100000000000D+00 -4.4066550472766D-02  3.0838350151172D-01
   153  1.5200000000000D+00 -3.5854013152741D-02  2.5193934892544D-01
   154  1.5300000000000D+00 -2.8408887395237D-02  2.0026141463597D-01
   155  1.5400000000000D+00 -2.1768461237860D-02  1.5382172902102D-01
   156  1.5500000000000D+00 -1.5965742513316D-02  1.1302797691687D-01
   157  1.5600000000000D+00 -1.1032783114474D-02  7.8244191605001D-02
   158  1.5700000000000D+00 -6.9835664674621D-03  4.9666794162142D-02
   159  1.5800000000000D+00 -3.8233745177591D-03  2.7383886452566D-02
   160  1.5900000000000D+00 -1.6368465940372D-03  1.2029233604350D-02
   161  1.6000000000000D+00 -4.3509189026377D-04  3.6671568338570D-03
   162  1.6100000000000D+00  2.8093909979849D-05  3.5400822277703D-04
   163  1.6200000000000D+00  6.9905928797390D-05 -2.4870462708672D-04
   164  1.6300000000000D+00 -1.0620672752824D-05  4.6112375715319D-05
   165  1.6400000000000D+00 -2.3119260074109D-05  1.0893807038964D-04
   166  1.6500000000000D+00  2.1128992235702D-06 -8.2879350533088D-06
   167  1.6600000000000D+00  4.2142752962446D-06 -1.7428402702250D-05
   168  1.6700000000000D+00  3.8947587224634D-09 -8.0884240017839D-07
   169  1.6800000000000D+00  7.2138960322491D-09 -1.4981428625369D-06
   170  1.6900000000000D+00  0.0000000000000D+00  0.0000000000000D+00
   171  1.7000000000000D+00  0.0000000000000D+00  0.0000000000000D+00
   172  1.7100000000000D+00  0.0000000000000D+00  0.0000000000000D+00
   173  1.7200000000000D+00  0.0000000000000D+00  0.0000000000000D+00
   174  1.7300000000000D+00  0.0000000000000D+00  0.0000000000000D+00
   175  1.7400000000000D+00  0.0000000000000D+00  0.0000000000000D+00
   176  1.7500000000000D+00  0.0000000000000D+00  0.0000000000000D+00
   177  1.7600000000000D+00  0.0000000000000D+00  0.0000000000000D+00
   178  1.7700000000000D+00  0.0000000000000D+00  0.0000000000000D+00
   179  1.7800000000000D+00  0.0000000000000D+00  0.0000000000000D+00
   180  1.7900000000000D+00  0.0000000000000D+00  0.0000000000000D+00
   181  1.8000000000000D+00  0.0000000000000D+00  0.0000000000000D+00
   182  1.8100000000000D+00  0.0000000000000D+00  0.0000000000000D+00
   183  1.8200000000000D+00  0.0000000000000D+00  0.0000000000000D+00
   184  1.8300000000000D+00  0.0000000000000D+00  0.0000000000000D+00
   185  1.8400000000000D+00  0.0000000000000D+00  0.0000000000000D+00
   186  1.8500000000000D+00  0.0000000000000D+00  0.0000000000000D+00
   187  1.8600000000000D+00  0.0000000000000D+00  0.0000000000000D+00
   188  1.8700000000000D+00  0.0000000000000D+00  0.0000000000000D+00
   189  1.8800000000000D+00  0.0000000000000D+00  0.0000000000000D+00
   190  1.8900000000000D+00  0.0000000000000D+00  0.0000000000000D+00
   191  1.9000000000000D+00  0.0000000000000D+00  0.0000000000000D+00
   192  1.9100000000000D+00  0.0000000000000D+00  0.0000000000000D+00
   193  1.9200000000000D+00  0.0000000000000D+00  0.0000000000000D+00
   194  1.9300000000000D+00  0.0000000000000D+00  0.0000000000000D+00
   195  1.9400000000000D+00  0.0000000000000D+00  0.0000000000000D+00
   196  1.9500000000000D+00  0.0000000000000D+00  0.0000000000000D+00
   197  1.9600000000000D+00  0.0000000000000D+00  0.0000000000000D+00
   198  1.9700000000000D+00  0.0000000000000D+00  0.0000000000000D+00
   199  1.9800000000000D+00  0.0000000000000D+00  0.0000000000000D+00
   200  1.9900000000000D+00  0.0000000000000D+00  0.0000000000000D+00
   201  2.0000000000000D+00  0.0000000000000D+00  0.0000000000000D+00
   202  2.0100000000000D+00  0.0000000000000D+00  0.0000000000000D+00
   203  2.0200000000000D+00  0.0000000000000D+00  0.0000000000000D+00
   204  2.0300000000000D+00  0.0000000000000D+00  0.0000000000000D+00
   205  2.0400000000000D+00  0.0000000000000D+00  0.0000000000000D+00
   206  2.0500000000000D+00  0.0000000000000D+00  0.0000000000000D+00
   207  2.0600000000000D+00  0.0000000000000D+00  0.0000000000000D+00
   208  2.0700000000000D+00  0.0000000000000D+00  0.0000000000000D+00
   209  2.0800000000000D+00  0.0000000000000D+00  0.0000000000000D+00
   210  2.0900000000000D+00  0.0000000000000D+00  0.0000000000000D+00
   211  2.1000000000000D+00  0.0000000000000D+00  0.0000000000000D+00
   212  2.1100000000000D+00  0.0000000000000D+00  0.0000000000000D+00
   213  2.1200000000000D+00  0.0000000000000D+00  0.0000000000000D+00
   214  2.1300000000000D+00  0.0000000000000D+00  0.0000000000000D+00
   215  2.1400000000000D+00  0.0000000000000D+00  0.0000000000000D+00
   216  2.1500000000000D+00  0.0000000000000D+00  0.0000000000000D+00
   217  2.1600000000000D+00  0.0000000000000D+00  0.0000000000000D+00
   218  2.1700000000000D+00  0.0000000000000D+00  0.0000000000000D+00
   219  2.1800000000000D+00  0.0000000000000D+00  0.0000000000000D+00
   220  2.1900000000000D+00  0.0000000000000D+00  0.0000000000000D+00
   221  2.2000000000000D+00  0.0000000000000D+00  0.0000000000000D+00
   222  2.2100000000000D+00  0.0000000000000D+00  0.0000000000000D+00
   223  2.2200000000000D+00  0.0000000000000D+00  0.0000000000000D+00
   224  2.2300000000000D+00  0.0000000000000D+00  0.0000000000000D+00
   225  2.2400000000000D+00  0.0000000000000D+00  0.0000000000000D+00
   226  2.2500000000000D+00  0.0000000000000D+00  0.0000000000000D+00
   227  2.2600000000000D+00  0.0000000000000D+00  0.0000000000000D+00
   228  2.2700000000000D+00  0.0000000000000D+00  0.0000000000000D+00
   229  2.2800000000000D+00  0.0000000000000D+00  0.0000000000000D+00
   230  2.2900000000000D+00  0.0000000000000D+00  0.0000000000000D+00
   231  2.3000000000000D+00  0.0000000000000D+00  0.0000000000000D+00
   232  2.3100000000000D+00  0.0000000000000D+00  0.0000000000000D+00
   233  2.3200000000000D+00  0.0000000000000D+00  0.0000000000000D+00
   234  2.3300000000000D+00  0.0000000000000D+00  0.0000000000000D+00
   235  2.3400000000000D+00  0.0000000000000D+00  0.0000000000000D+00
   236  2.3500000000000D+00  0.0000000000000D+00  0.0000000000000D+00
   237  2.3600000000000D+00  0.0000000000000D+00  0.0000000000000D+00
   238  2.3700000000000D+00  0.0000000000000D+00  0.0000000000000D+00
   239  2.3800000000000D+00  0.0000000000000D+00  0.0000000000000D+00
   240  2.3900000000000D+00  0.0000000000000D+00  0.0000000000000D+00
   241  2.4000000000000D+00  0.0000000000000D+00  0.0000000000000D+00
   242  2.4100000000000D+00  0.0000000000000D+00  0.0000000000000D+00
   243  2.4200000000000D+00  0.0000000000000D+00  0.0000000000000D+00
   244  2.4300000000000D+00  0.0000000000000D+00  0.0000000000000D+00
   245  2.4400000000000D+00  0.0000000000000D+00  0.0000000000000D+00
   246  2.4500000000000D+00  0.0000000000000D+00  0.0000000000000D+00
   247  2.4600000000000D+00  0.0000000000000D+00  0.0000000000000D+00
   248  2.4700000000000D+00  0.0000000000000D+00  0.0000000000000D+00
   249  2.4800000000000D+00  0.0000000000000D+00  0.0000000000000D+00
   250  2.4900000000000D+00  0.0000000000000D+00  0.0000000000000D+00
   251  2.5000000000000D+00  0.0000000000000D+00  0.0000000000000D+00
   252  2.5100000000000D+00  0.0000000000000D+00  0.0000000000000D+00
   253  2.5200000000000D+00  0.0000000000000D+00  0.0000000000000D+00
   254  2.5300000000000D+00  0.0000000000000D+00  0.0000000000000D+00
   255  2.5400000000000D+00  0.0000000000000D+00  0.0000000000000D+00
   256  2.5500000000000D+00  0.0000000000000D+00  0.0000000000000D+00
   257  2.5600000000000D+00  0.0000000000000D+00  0.0000000000000D+00
   258  2.5700000000000D+00  0.0000000000000D+00  0.0000000000000D+00
   259  2.5800000000000D+00  0.0000000000000D+00  0.0000000000000D+00
   260  2.5900000000000D+00  0.0000000000000D+00  0.0000000000000D+00
   261  2.6000000000000D+00  0.0000000000000D+00  0.0000000000000D+00
   262  2.6100000000000D+00  0.0000000000000D+00  0.0000000000000D+00
   263  2.6200000000000D+00  0.0000000000000D+00  0.0000000000000D+00
   264  2.6300000000000D+00  0.0000000000000D+00  0.0000000000000D+00
   265  2.6400000000000D+00  0.0000000000000D+00  0.0000000000000D+00
   266  2.6500000000000D+00  0.0000000000000D+00  0.0000000000000D+00
   267  2.6600000000000D+00  0.0000000000000D+00  0.0000000000000D+00
   268  2.6700000000000D+00  0.0000000000000D+00  0.0000000000000D+00
   269  2.6800000000000D+00  0.0000000000000D+00  0.0000000000000D+00
   270  2.6900000000000D+00  0.0000000000000D+00  0.0000000000000D+00
   271  2.7000000000000D+00  0.0000000000000D+00  0.0000000000000D+00
   272  2.7100000000000D+00  0.0000000000000D+00  0.0000000000000D+00
   273  2.7200000000000D+00  0.0000000000000D+00  0.0000000000000D+00
   274  2.7300000000000D+00  0.0000000000000D+00  0.0000000000000D+00
   275  2.7400000000000D+00  0.0000000000000D+00  0.0000000000000D+00
   276  2.7500000000000D+00  0.0000000000000D+00  0.0000000000000D+00
   277  2.7600000000000D+00  0.0000000000000D+00  0.0000000000000D+00
   278  2.7700000000000D+00  0.0000000000000D+00  0.0000000000000D+00
   279  2.7800000000000D+00  0.0000000000000D+00  0.0000000000000D+00
   280  2.7900000000000D+00  0.0000000000000D+00  0.0000000000000D+00
   281  2.8000000000000D+00  0.0000000000000D+00  0.0000000000000D+00
   282  2.8100000000000D+00  0.0000000000000D+00  0.0000000000000D+00
   283  2.8200000000000D+00  0.0000000000000D+00  0.0000000000000D+00
   284  2.8300000000000D+00  0.0000000000000D+00  0.0000000000000D+00
   285  2.8400000000000D+00  0.0000000000000D+00  0.0000000000000D+00
   286  2.8500000000000D+00  0.0000000000000D+00  0.0000000000000D+00
   287  2.8600000000000D+00  0.0000000000000D+00  0.0000000000000D+00
   288  2.8700000000000D+00  0.0000000000000D+00  0.0000000000000D+00
   289  2.8800000000000D+00  0.0000000000000D+00  0.0000000000000D+00
   290  2.8900000000000D+00  0.0000000000000D+00  0.0000000000000D+00
   291  2.9000000000000D+00  0.0000000000000D+00  0.0000000000000D+00
   292  2.9100000000000D+00  0.0000000000000D+00  0.0000000000000D+00
   293  2.9200000000000D+00  0.0000000000000D+00  0.0000000000000D+00
   294  2.9300000000000D+00  0.0000000000000D+00  0.0000000000000D+00
   295  2.9400000000000D+00  0.0000000000000D+00  0.0000000000000D+00
   296  2.9500000000000D+00  0.0000000000000D+00  0.0000000000000D+00
   297  2.9600000000000D+00  0.0000000000000D+00  0.0000000000000D+00
   298  2.9700000000000D+00  0.0000000000000D+00  0.0000000000000D+00
   299  2.9800000000000D+00  0.0000000000000D+00  0.0000000000000D+00
   300  2.9900000000000D+00  0.0000000000000D+00  0.0000000000000D+00
   301  3.0000000000000D+00  0.0000000000000D+00  0.0000000000000D+00
   302  3.0100000000000D+00  0.0000000000000D+00  0.0000000000000D+00
   303  3.0200000000000D+00  0.0000000000000D+00  0.0000000000000D+00
   304  3.0300000000000D+00  0.0000000000000D+00  0.0000000000000D+00
   305  3.0400000000000D+00  0.0000000000000D+00  0.0000000000000D+00
   306  3.0500000000000D+00  0.0000000000000D+00  0.0000000000000D+00
   307  3.0600000000000D+00  0.0000000000000D+00  0.0000000000000D+00
   308  3.0700000000000D+00  0.0000000000000D+00  0.0000000000000D+00
   309  3.0800000000000D+00  0.0000000000000D+00  0.0000000000000D+00
   310  3.0900000000000D+00  0.0000000000000D+00  0.0000000000000D+00
   311  3.1000000000000D+00  0.0000000000000D+00  0.0000000000000D+00
   312  3.1100000000000D+00  0.0000000000000D+00  0.0000000000000D+00
   313  3.1200000000000D+00  0.0000000000000D+00  0.0000000000000D+00
   314  3.1300000000000D+00  0.0000000000000D+00  0.0000000000000D+00
   315  3.1400000000000D+00  0.0000000000000D+00  0.0000000000000D+00
   316  3.1500000000000D+00  0.0000000000000D+00  0.0000000000000D+00
   317  3.1600000000000D+00  0.0000000000000D+00  0.0000000000000D+00
   318  3.1700000000000D+00  0.0000000000000D+00  0.0000000000000D+00
   319  3.1800000000000D+00  0.0000000000000D+00  0.0000000000000D+00
   320  3.1900000000000D+00  0.0000000000000D+00  0.0000000000000D+00
   321  3.2000000000000D+00  0.0000000000000D+00  0.0000000000000D+00
   322  3.2100000000000D+00  0.0000000000000D+00  0.0000000000000D+00
   323  3.2200000000000D+00  0.0000000000000D+00  0.0000000000000D+00
   324  3.2300000000000D+00  0.0000000000000D+00  0.0000000000000D+00
   325  3.2400000000000D+00  0.0000000000000D+00  0.0000000000000D+00
   326  3.2500000000000D+00  0.0000000000000D+00  0.0000000000000D+00
   327  3.2600000000000D+00  0.0000000000000D+00  0.0000000000000D+00
   328  3.2700000000000D+00  0.0000000000000D+00  0.0000000000000D+00
   329  3.2800000000000D+00  0.0000000000000D+00  0.0000000000000D+00
   330  3.2900000000000D+00  0.0000000000000D+00  0.0000000000000D+00
   331  3.3000000000000D+00  0.0000000000000D+00  0.0000000000000D+00
   332  3.3100000000000D+00  0.0000000000000D+00  0.0000000000000D+00
   333  3.3200000000000D+00  0.0000000000000D+00  0.0000000000000D+00
   334  3.3300000000000D+00  0.0000000000000D+00  0.0000000000000D+00
   335  3.3400000000000D+00  0.0000000000000D+00  0.0000000000000D+00
   336  3.3500000000000D+00  0.0000000000000D+00  0.0000000000000D+00
   337  3.3600000000000D+00  0.0000000000000D+00  0.0000000000000D+00
   338  3.3700000000000D+00  0.0000000000000D+00  0.0000000000000D+00
   339  3.3800000000000D+00  0.0000000000000D+00  0.0000000000000D+00
   340  3.3900000000000D+00  0.0000000000000D+00  0.0000000000000D+00
   341  3.4000000000000D+00  0.0000000000000D+00  0.0000000000000D+00
   342  3.4100000000000D+00  0.0000000000000D+00  0.0000000000000D+00
   343  3.4200000000000D+00  0.0000000000000D+00  0.0000000000000D+00
   344  3.4300000000000D+00  0.0000000000000D+00  0.0000000000000D+00
   345  3.4400000000000D+00  0.0000000000000D+00  0.0000000000000D+00
   346  3.4500000000000D+00  0.0000000000000D+00  0.0000000000000D+00
   347  3.4600000000000D+00  0.0000000000000D+00  0.0000000000000D+00
   348  3.4700000000000D+00  0.0000000000000D+00  0.0000000000000D+00
   349  3.4800000000000D+00  0.0000000000000D+00  0.0000000000000D+00
   350  3.4900000000000D+00  0.0000000000000D+00  0.0000000000000D+00
   351  3.5000000000000D+00  0.0000000000000D+00  0.0000000000000D+00
   352  3.5100000000000D+00  0.0000000000000D+00  0.0000000000000D+00
   353  3.5200000000000D+00  0.0000000000000D+00  0.0000000000000D+00
   354  3.5300000000000D+00  0.0000000000000D+00  0.0000000000000D+00
   355  3.5400000000000D+00  0.0000000000000D+00  0.0000000000000D+00
   356  3.5500000000000D+00  0.0000000000000D+00  0.0000000000000D+00
   357  3.5600000000000D+00  0.0000000000000D+00  0.0000000000000D+00
   358  3.5700000000000D+00  0.0000000000000D+00  0.0000000000000D+00
   359  3.5800000000000D+00  0.0000000000000D+00  0.0000000000000D+00
   360  3.5900000000000D+00  0.0000000000000D+00  0.0000000000000D+00
   361  3.6000000000000D+00  0.0000000000000D+00  0.0000000000000D+00
   362  3.6100000000000D+00  0.0000000000000D+00  0.0000000000000D+00
   363  3.6200000000000D+00  0.0000000000000D+00  0.0000000000000D+00
   364  3.6300000000000D+00  0.0000000000000D+00  0.0000000000000D+00
   365  3.6400000000000D+00  0.0000000000000D+00  0.0000000000000D+00
   366  3.6500000000000D+00  0.0000000000000D+00  0.0000000000000D+00
   367  3.6600000000000D+00  0.0000000000000D+00  0.0000000000000D+00
   368  3.6700000000000D+00  0.0000000000000D+00  0.0000000000000D+00
   369  3.6800000000000D+00  0.0000000000000D+00  0.0000000000000D+00
   370  3.6900000000000D+00  0.0000000000000D+00  0.0000000000000D+00
   371  3.7000000000000D+00  0.0000000000000D+00  0.0000000000000D+00
   372  3.7100000000000D+00  0.0000000000000D+00  0.0000000000000D+00
   373  3.7200000000000D+00  0.0000000000000D+00  0.0000000000000D+00
   374  3.7300000000000D+00  0.0000000000000D+00  0.0000000000000D+00
   375  3.7400000000000D+00  0.0000000000000D+00  0.0000000000000D+00
   376  3.7500000000000D+00  0.0000000000000D+00  0.0000000000000D+00
   377  3.7600000000000D+00  0.0000000000000D+00  0.0000000000000D+00
   378  3.7700000000000D+00  0.0000000000000D+00  0.0000000000000D+00
   379  3.7800000000000D+00  0.0000000000000D+00  0.0000000000000D+00
   380  3.7900000000000D+00  0.0000000000000D+00  0.0000000000000D+00
   381  3.8000000000000D+00  0.0000000000000D+00  0.0000000000000D+00
   382  3.8100000000000D+00  0.0000000000000D+00  0.0000000000000D+00
   383  3.8200000000000D+00  0.0000000000000D+00  0.0000000000000D+00
   384  3.8300000000000D+00  0.0000000000000D+00  0.0000000000000D+00
   385  3.8400000000000D+00  0.0000000000000D+00  0.0000000000000D+00
   386  3.8500000000000D+00  0.0000000000000D+00  0.0000000000000D+00
   387  3.8600000000000D+00  0.0000000000000D+00  0.0000000000000D+00
   388  3.8700000000000D+00  0.0000000000000D+00  0.0000000000000D+00
   389  3.8800000000000D+00  0.0000000000000D+00  0.0000000000000D+00
   390  3.8900000000000D+00  0.0000000000000D+00  0.0000000000000D+00
   391  3.9000000000000D+00  0.0000000000000D+00  0.0000000000000D+00
   392  3.9100000000000D+00  0.0000000000000D+00  0.0000000000000D+00
   393  3.9200000000000D+00  0.0000000000000D+00  0.0000000000000D+00
   394  3.9300000000000D+00  0.0000000000000D+00  0.0000000000000D+00
   395  3.9400000000000D+00  0.0000000000000D+00  0.0000000000000D+00
   396  3.9500000000000D+00  0.0000000000000D+00  0.0000000000000D+00
   397  3.9600000000000D+00  0.0000000000000D+00  0.0000000000000D+00
   398  3.9700000000000D+00  0.0000000000000D+00  0.0000000000000D+00
   399  3.9800000000000D+00  0.0000000000000D+00  0.0000000000000D+00
   400  3.9900000000000D+00  0.0000000000000D+00  0.0000000000000D+00
   401  4.0000000000000D+00  0.0000000000000D+00  0.0000000000000D+00
   402  4.0100000000000D+00  0.0000000000000D+00  0.0000000000000D+00
   403  4.0200000000000D+00  0.0000000000000D+00  0.0000000000000D+00
   404  4.0300000000000D+00  0.0000000000000D+00  0.0000000000000D+00
   405  4.0400000000000D+00  0.0000000000000D+00  0.0000000000000D+00
   406  4.0500000000000D+00  0.0000000000000D+00  0.0000000000000D+00
   407  4.0600000000000D+00  0.0000000000000D+00  0.0000000000000D+00
   408  4.0700000000000D+00  0.0000000000000D+00  0.0000000000000D+00
   409  4.0800000000000D+00  0.0000000000000D+00  0.0000000000000D+00
   410  4.0900000000000D+00  0.0000000000000D+00  0.0000000000000D+00
   411  4.1000000000000D+00  0.0000000000000D+00  0.0000000000000D+00
   412  4.1100000000000D+00  0.0000000000000D+00  0.0000000000000D+00
   413  4.1200000000000D+00  0.0000000000000D+00  0.0000000000000D+00
   414  4.1300000000000D+00  0.0000000000000D+00  0.0000000000000D+00
   415  4.1400000000000D+00  0.0000000000000D+00  0.0000000000000D+00
   416  4.1500000000000D+00  0.0000000000000D+00  0.0000000000000D+00
   417  4.1600000000000D+00  0.0000000000000D+00  0.0000000000000D+00
   418  4.1700000000000D+00  0.0000000000000D+00  0.0000000000000D+00
   419  4.1800000000000D+00  0.0000000000000D+00  0.0000000000000D+00
   420  4.1900000000000D+00  0.0000000000000D+00  0.0000000000000D+00
   421  4.2000000000000D+00  0.0000000000000D+00  0.0000000000000D+00
   422  4.2100000000000D+00  0.0000000000000D+00  0.0000000000000D+00