Ag    ONCVPSP-3.3.0  r_core=   1.41384   1.46535   1.61207
     47.0000     19.0000      220408    zatom,zion,pspd
     8       2   2     4   600     0    pspcod,pspxc,lmax,lloc,mmax,r2well
  5.99000000  0.00000000  0.00000000    rchrg fchrg qchrg
     2     2     2     0     0    nproj
     1     1           extension_switch
   0                         9.5632400346412D+00 -3.7791354683406D-01
     1  0.0000000000000D+00 -5.1909032627862D-11 -3.2053760756767D-09
     2  1.0000000000000D-02  7.9296952931596D-02  7.3215336966520D-02
     3  2.0000000000000D-02  1.5840393978266D-01  1.4590432118281D-01
     4  3.0000000000000D-02  2.3713157545905D-01  2.1754539000227D-01
     5  4.0000000000000D-02  3.1529163466324D-01  2.8762650262985D-01
     6  5.0000000000000D-02  3.9269762636558D-01  3.5564975599032D-01
     7  6.0000000000000D-02  4.6916536180054D-01  4.2113582884472D-01
     8  7.0000000000000D-02  5.4451351389111D-01  4.8362820072917D-01
     9  8.0000000000000D-02  6.1856416605672D-01  5.4269709549593D-01
    10  9.0000000000000D-02  6.9114334842359D-01  5.9794310315337D-01
    11  1.0000000000000D-01  7.6208155953116D-01  6.4900043827134D-01
    12  1.1000000000000D-01  8.3121427171297D-01  6.9553979837430D-01
    13  1.2000000000000D-01  8.9838241842431D-01  7.3727079140837D-01
    14  1.3000000000000D-01  9.6343286189076D-01  7.7394390745796D-01
    15  1.4000000000000D-01  1.0262188395605D+00  8.0535201631058D-01
    16  1.5000000000000D-01  1.0866003879574D+00  8.3133137913042D-01
    17  1.6000000000000D-01  1.1444447426499D+00  8.5176216930259D-01
    18  1.7000000000000D-01  1.1996267131731D+00  8.6656850434930D-01
    19  1.8000000000000D-01  1.2520290318638D+00  8.7571799759473D-01
    20  1.9000000000000D-01  1.3015426756917D+00  8.7922084486583D-01
    21  2.0000000000000D-01  1.3480671602922D+00  8.7712846786263D-01
    22  2.1000000000000D-01  1.3915108055284D+00  8.6953174181937D-01
    23  2.2000000000000D-01  1.4317909720255D+00  8.5655884061711D-01
    24  2.3000000000000D-01  1.4688342682342D+00  8.3837273751526D-01
    25  2.4000000000000D-01  1.5025767276906D+00  8.1516840407177D-01
    26  2.5000000000000D-01  1.5329639562393D+00  7.8716975354830D-01
    27  2.6000000000000D-01  1.5599512490845D+00  7.5462637809729D-01
    28  2.7000000000000D-01  1.5835036776260D+00  7.1781013125300D-01
    29  2.8000000000000D-01  1.6035961461131D+00  6.7701160866761D-01
    30  2.9000000000000D-01  1.6202134182333D+00  6.3253658062407D-01
    31  3.0000000000000D-01  1.6333501138144D+00  5.8470242961221D-01
    32  3.1000000000000D-01  1.6430106758831D+00  5.3383464517661D-01
    33  3.2000000000000D-01  1.6492093083790D+00  4.8026342635362D-01
    34  3.3000000000000D-01  1.6519698848691D+00  4.2432043933783D-01
    35  3.4000000000000D-01  1.6513258286545D+00  3.6633577460000D-01
    36  3.5000000000000D-01  1.6473199646980D+00  3.0663514357067D-01
    37  3.6000000000000D-01  1.6400043438376D+00  2.4553735027440D-01
    38  3.7000000000000D-01  1.6294400397828D+00  1.8335206801914D-01
    39  3.8000000000000D-01  1.6156969194224D+00  1.2037794550232D-01
    40  3.9000000000000D-01  1.5988533870006D+00  5.6901060578521D-02
    41  4.0000000000000D-01  1.5789961027521D+00 -6.8062664584988D-03
    42  4.1000000000000D-01  1.5562196766158D+00 -7.0486294790981D-02
    43  4.2000000000000D-01  1.5306263376838D+00 -1.3389632153037D-01
    44  4.3000000000000D-01  1.5023255800801D+00 -1.9680878463799D-01
    45  4.4000000000000D-01  1.4714337860076D+00 -2.5901102468177D-01
    46  4.5000000000000D-01  1.4380738267489D+00 -3.2030472597742D-01
    47  4.6000000000000D-01  1.4023746424654D+00 -3.8050506348728D-01
    48  4.7000000000000D-01  1.3644708016955D+00 -4.3943958721348D-01
    49  4.8000000000000D-01  1.3245020415297D+00 -4.9694688063837D-01
    50  4.9000000000000D-01  1.2826127895087D+00 -5.5287503394781D-01
    51  5.0000000000000D-01  1.2389516683839D+00 -6.0707997624901D-01
    52  5.1000000000000D-01  1.1936709849651D+00 -6.5942371369901D-01
    53  5.2000000000000D-01  1.1469262043831D+00 -7.0977252234322D-01
    54  5.3000000000000D-01  1.0988754112001D+00 -7.5799514548450D-01
    55  5.4000000000000D-01  1.0496787589115D+00 -8.0396104553678D-01
    56  5.5000000000000D-01  9.9949790949998D-01 -8.4753875955481D-01
    57  5.6000000000000D-01  9.4849546482194D-01 -8.8859440597074D-01
    58  5.7000000000000D-01  8.9683439172878D-01 -9.2699038753064D-01
    59  5.8000000000000D-01  8.4467744294625D-01 -9.6258433204411D-01
    60  5.9000000000000D-01  7.9218657585758D-01 -9.9522830837067D-01
    61  6.0000000000000D-01  7.3952237145210D-01 -1.0247683501533D+00
    62  6.1000000000000D-01  6.8684345581359D-01 -1.0510443142089D+00
    63  6.2000000000000D-01  6.3430592662672D-01 -1.0738900943182D+00
    64  6.3000000000000D-01  5.8206278727408D-01 -1.0931342045003D+00
    65  6.4000000000000D-01  5.3026339117931D-01 -1.1086007387951D+00
    66  6.5000000000000D-01  4.7905289911900D-01 -1.1201107072857D+00
    67  6.6000000000000D-01  4.2857175227816D-01 -1.1274837406045D+00
    68  6.7000000000000D-01  3.7895516385671D-01 -1.1305401476684D+00
    69  6.8000000000000D-01  3.3033263204639D-01 -1.1291033039964D+00
    70  6.9000000000000D-01  2.8282747718791D-01 -1.1230023407699D+00
    71  7.0000000000000D-01  2.3655640588317D-01 -1.1120750979529D+00
    72  7.1000000000000D-01  1.9162910477832D-01 -1.0961712984205D+00
    73  7.2000000000000D-01  1.4814786664664D-01 -1.0751558942500D+00
    74  7.3000000000000D-01  1.0620725128724D-01 -1.0489125312268D+00
    75  7.4000000000000D-01  6.5893783613507D-02 -1.0173470732870D+00
    76  7.5000000000000D-01  2.7285691136100D-02 -9.8039112518690D-01
    77  7.6000000000000D-01 -9.5473171519490D-03 -9.3800548919186D-01
    78  7.7000000000000D-01 -4.4544228704710D-02 -8.9018349009571D-01
    79  7.8000000000000D-01 -7.7652860634941D-02 -8.3695410245869D-01
    80  7.9000000000000D-01 -1.0882994694973D-01 -7.7838481461547D-01
    81  8.0000000000000D-01 -1.3804117885081D-01 -7.1458416577075D-01
    82  8.1000000000000D-01 -1.6526119745884D-01 -6.4570389536776D-01
    83  8.2000000000000D-01 -1.9047353865772D-01 -5.7194064785314D-01
    84  8.3000000000000D-01 -2.1367053010718D-01 -4.9353718094262D-01
    85  8.4000000000000D-01 -2.3485314083623D-01 -4.1078303145263D-01
    86  8.5000000000000D-01 -2.5403078420260D-01 -3.2401459963405D-01
    87  8.6000000000000D-01 -2.7122107538078D-01 -2.3361462063743D-01
    88  8.7000000000000D-01 -2.8644954491926D-01 -1.4001100014820D-01
    89  8.8000000000000D-01 -2.9974931028235D-01 -4.3675000244572D-02
    90  8.9000000000000D-01 -3.1116070765868D-01  5.4881228981819D-02
    91  9.0000000000000D-01 -3.2073088667376D-01  1.5510776667811D-01
    92  9.1000000000000D-01 -3.2851337098192D-01  2.5642067197424D-01
    93  9.2000000000000D-01 -3.3456758803112D-01  3.5820634278443D-01
    94  9.3000000000000D-01 -3.3895837158725D-01  4.5982644728073D-01
    95  9.4000000000000D-01 -3.4175544086851D-01  5.6062338296940D-01
    96  9.5000000000000D-01 -3.4303286037079D-01  6.5992620913315D-01
    97  9.6000000000000D-01 -3.4286848466301D-01  7.5705698959433D-01
    98  9.7000000000000D-01 -3.4134339258536D-01  8.5133747491426D-01
    99  9.8000000000000D-01 -3.3854131539847D-01  9.4209604600253D-01
   100  9.9000000000000D-01 -3.3454806350173D-01  1.0286748350043D+00
   101  1.0000000000000D+00 -3.2945095636274D-01  1.1104369343169D+00
   102  1.0100000000000D+00 -3.2333826027703D-01  1.1867736007528D+00
   103  1.0200000000000D+00 -3.1629863850208D-01  1.2571113593690D+00
   104  1.0300000000000D+00 -3.0842061819969D-01  1.3209189101978D+00
   105  1.0400000000000D+00 -2.9979207844160D-01  1.3777137413289D+00
   106  1.0500000000000D+00 -2.9049976332682D-01  1.4270683533863D+00
   107  1.0600000000000D+00 -2.8062882399994D-01  1.4686160033753D+00
   108  1.0700000000000D+00 -2.7026239304238D-01  1.5020558805775D+00
   109  1.0800000000000D+00 -2.5948119439834D-01  1.5271576323340D+00
   110  1.0900000000000D+00 -2.4836319158895D-01  1.5437651650838D+00
   111  1.1000000000000D+00 -2.3698327656555D-01  1.5517996541999D+00
   112  1.1100000000000D+00 -2.2541300111614D-01  1.5512617054461D+00
   113  1.1200000000000D+00 -2.1372035224929D-01  1.5422326219182D+00
   114  1.1300000000000D+00 -2.0196957257661D-01  1.5248747396013D+00
   115  1.1400000000000D+00 -1.9022102610446D-01  1.4994308094329D+00
   116  1.1500000000000D+00 -1.7853110942419D-01  1.4662224143586D+00
   117  1.1600000000000D+00 -1.6695220772792D-01  1.4256474242612D+00
   118  1.1700000000000D+00 -1.5553269468908D-01  1.3781765016800D+00
   119  1.1800000000000D+00 -1.4431697459234D-01  1.3243486888136D+00
   120  1.1900000000000D+00 -1.3334556471538D-01  1.2647661169508D+00
   121  1.2000000000000D+00 -1.2265521554706D-01  1.2000878910380D+00
   122  1.2100000000000D+00 -1.1227906594638D-01  1.1310232156799D+00
   123  1.2200000000000D+00 -1.0224682992843D-01  1.0583238411755D+00
   124  1.2300000000000D+00 -9.2585011459065D-02  9.8277591735851D-01
   125  1.2400000000000D+00 -8.3317143386288D-02  9.0519135042248D-01
   126  1.2500000000000D+00 -7.4464046202307D-02  8.2639877152614D-01
   127  1.2600000000000D+00 -6.6044102255797D-02  7.4723422889736D-01
   128  1.2700000000000D+00 -5.8073540876941D-02  6.6853171975871D-01
   129  1.2800000000000D+00 -5.0566729630894D-02  5.9111368746786D-01
   130  1.2900000000000D+00 -4.3536467053968D-02  5.1578160588828D-01
   131  1.3000000000000D+00 -3.6994272062954D-02  4.4330677783104D-01
   132  1.3100000000000D+00 -3.0950665371000D-02  3.7442147266435D-01
   133  1.3200000000000D+00 -2.5415438481797D-02  3.0981052145863D-01
   134  1.3300000000000D+00 -2.0397905645230D-02  2.5010349379269D-01
   135  1.3400000000000D+00 -1.5907134851505D-02  1.9586756260158D-01
   136  1.3500000000000D+00 -1.1952153981917D-02  1.4760116175568D-01
   137  1.3600000000000D+00 -8.5421282962357D-03  1.0572854022177D-01
   138  1.3700000000000D+00 -5.6880874001224D-03  7.0615556862637D-02
   139  1.3800000000000D+00 -3.3953506087017D-03  4.2467693528326D-02
   140  1.3900000000000D+00 -1.6672222887451D-03  2.1362983364972D-02
   141  1.4000000000000D+00 -5.6108525512959D-04  8.0617720373267D-03
   142  1.4100000000000D+00 -4.5935026905961D-05  1.9476368570354D-03
   143  1.4200000000000D+00  6.3893719521654D-05  1.0209579543532D-04
   144  1.4300000000000D+00  5.4266055815452D-06 -1.3934938672258D-05
   145  1.4400000000000D+00 -1.6080771915155D-05  5.9978648909745D-05
   146  1.4500000000000D+00  1.3233313780328D-06 -2.2924635050420D-06
   147  1.4600000000000D+00  2.4871372221510D-06 -5.7924683368867D-06
   148  1.4700000000000D+00 -7.2358128359246D-08 -2.0786712726123D-06
   149  1.4800000000000D+00 -4.2992542149870D-08 -1.2350701203853D-06
   150  1.4900000000000D+00  0.0000000000000D+00  0.0000000000000D+00
   151  1.5000000000000D+00  0.0000000000000D+00  0.0000000000000D+00
   152  1.5100000000000D+00  0.0000000000000D+00  0.0000000000000D+00
   153  1.5200000000000D+00  0.0000000000000D+00  0.0000000000000D+00
   154  1.5300000000000D+00  0.0000000000000D+00  0.0000000000000D+00
   155  1.5400000000000D+00  0.0000000000000D+00  0.0000000000000D+00
   156  1.5500000000000D+00  0.0000000000000D+00  0.0000000000000D+00
   157  1.5600000000000D+00  0.0000000000000D+00  0.0000000000000D+00
   158  1.5700000000000D+00  0.0000000000000D+00  0.0000000000000D+00
   159  1.5800000000000D+00  0.0000000000000D+00  0.0000000000000D+00
   160  1.5900000000000D+00  0.0000000000000D+00  0.0000000000000D+00
   161  1.6000000000000D+00  0.0000000000000D+00  0.0000000000000D+00
   162  1.6100000000000D+00  0.0000000000000D+00  0.0000000000000D+00
   163  1.6200000000000D+00  0.0000000000000D+00  0.0000000000000D+00
   164  1.6300000000000D+00  0.0000000000000D+00  0.0000000000000D+00
   165  1.6400000000000D+00  0.0000000000000D+00  0.0000000000000D+00
   166  1.6500000000000D+00  0.0000000000000D+00  0.0000000000000D+00
   167  1.6600000000000D+00  0.0000000000000D+00  0.0000000000000D+00
   168  1.6700000000000D+00  0.0000000000000D+00  0.0000000000000D+00
   169  1.6800000000000D+00  0.0000000000000D+00  0.0000000000000D+00
   170  1.6900000000000D+00  0.0000000000000D+00  0.0000000000000D+00
   171  1.7000000000000D+00  0.0000000000000D+00  0.0000000000000D+00
   172  1.7100000000000D+00  0.0000000000000D+00  0.0000000000000D+00
   173  1.7200000000000D+00  0.0000000000000D+00  0.0000000000000D+00
   174  1.7300000000000D+00  0.0000000000000D+00  0.0000000000000D+00
   175  1.7400000000000D+00  0.0000000000000D+00  0.0000000000000D+00
   176  1.7500000000000D+00  0.0000000000000D+00  0.0000000000000D+00
   177  1.7600000000000D+00  0.0000000000000D+00  0.0000000000000D+00
   178  1.7700000000000D+00  0.0000000000000D+00  0.0000000000000D+00
   179  1.7800000000000D+00  0.0000000000000D+00  0.0000000000000D+00
   180  1.7900000000000D+00  0.0000000000000D+00  0.0000000000000D+00
   181  1.8000000000000D+00  0.0000000000000D+00  0.0000000000000D+00
   182  1.8100000000000D+00  0.0000000000000D+00  0.0000000000000D+00
   183  1.8200000000000D+00  0.0000000000000D+00  0.0000000000000D+00
   184  1.8300000000000D+00  0.0000000000000D+00  0.0000000000000D+00
   185  1.8400000000000D+00  0.0000000000000D+00  0.0000000000000D+00
   186  1.8500000000000D+00  0.0000000000000D+00  0.0000000000000D+00
   187  1.8600000000000D+00  0.0000000000000D+00  0.0000000000000D+00
   188  1.8700000000000D+00  0.0000000000000D+00  0.0000000000000D+00
   189  1.8800000000000D+00  0.0000000000000D+00  0.0000000000000D+00
   190  1.8900000000000D+00  0.0000000000000D+00  0.0000000000000D+00
   191  1.9000000000000D+00  0.0000000000000D+00  0.0000000000000D+00
   192  1.9100000000000D+00  0.0000000000000D+00  0.0000000000000D+00
   193  1.9200000000000D+00  0.0000000000000D+00  0.0000000000000D+00
   194  1.9300000000000D+00  0.0000000000000D+00  0.0000000000000D+00
   195  1.9400000000000D+00  0.0000000000000D+00  0.0000000000000D+00
   196  1.9500000000000D+00  0.0000000000000D+00  0.0000000000000D+00
   197  1.9600000000000D+00  0.0000000000000D+00  0.0000000000000D+00
   198  1.9700000000000D+00  0.0000000000000D+00  0.0000000000000D+00
   199  1.9800000000000D+00  0.0000000000000D+00  0.0000000000000D+00
   200  1.9900000000000D+00  0.0000000000000D+00  0.0000000000000D+00
   201  2.0000000000000D+00  0.0000000000000D+00  0.0000000000000D+00
   202  2.0100000000000D+00  0.0000000000000D+00  0.0000000000000D+00
   203  2.0200000000000D+00  0.0000000000000D+00  0.0000000000000D+00
   204  2.0300000000000D+00  0.0000000000000D+00  0.0000000000000D+00
   205  2.0400000000000D+00  0.0000000000000D+00  0.0000000000000D+00
   206  2.0500000000000D+00  0.0000000000000D+00  0.0000000000000D+00
   207  2.0600000000000D+00  0.0000000000000D+00  0.0000000000000D+00
   208  2.0700000000000D+00  0.0000000000000D+00  0.0000000000000D+00
   209  2.0800000000000D+00  0.0000000000000D+00  0.0000000000000D+00
   210  2.0900000000000D+00  0.0000000000000D+00  0.0000000000000D+00
   211  2.1000000000000D+00  0.0000000000000D+00  0.0000000000000D+00
   212  2.1100000000000D+00  0.0000000000000D+00  0.0000000000000D+00
   213  2.1200000000000D+00  0.0000000000000D+00  0.0000000000000D+00
   214  2.1300000000000D+00  0.0000000000000D+00  0.0000000000000D+00
   215  2.1400000000000D+00  0.0000000000000D+00  0.0000000000000D+00
   216  2.1500000000000D+00  0.0000000000000D+00  0.0000000000000D+00
   217  2.1600000000000D+00  0.0000000000000D+00  0.0000000000000D+00
   218  2.1700000000000D+00  0.0000000000000D+00  0.0000000000000D+00
   219  2.1800000000000D+00  0.0000000000000D+00  0.0000000000000D+00
   220  2.1900000000000D+00  0.0000000000000D+00  0.0000000000000D+00
   221  2.2000000000000D+00  0.0000000000000D+00  0.0000000000000D+00
   222  2.2100000000000D+00  0.0000000000000D+00  0.0000000000000D+00
   223  2.2200000000000D+00  0.0000000000000D+00  0.0000000000000D+00
   224  2.2300000000000D+00  0.0000000000000D+00  0.0000000000000D+00
   225  2.2400000000000D+00  0.0000000000000D+00  0.0000000000000D+00
   226  2.2500000000000D+00  0.0000000000000D+00  0.0000000000000D+00
   227  2.2600000000000D+00  0.0000000000000D+00  0.0000000000000D+00
   228  2.2700000000000D+00  0.0000000000000D+00  0.0000000000000D+00
   229  2.2800000000000D+00  0.0000000000000D+00  0.0000000000000D+00
   230  2.2900000000000D+00  0.0000000000000D+00  0.0000000000000D+00
   231  2.3000000000000D+00  0.0000000000000D+00  0.0000000000000D+00
   232  2.3100000000000D+00  0.0000000000000D+00  0.0000000000000D+00
   233  2.3200000000000D+00  0.0000000000000D+00  0.0000000000000D+00
   234  2.3300000000000D+00  0.0000000000000D+00  0.0000000000000D+00
   235  2.3400000000000D+00  0.0000000000000D+00  0.0000000000000D+00
   236  2.3500000000000D+00  0.0000000000000D+00  0.0000000000000D+00
   237  2.3600000000000D+00  0.0000000000000D+00  0.0000000000000D+00
   238  2.3700000000000D+00  0.0000000000000D+00  0.0000000000000D+00
   239  2.3800000000000D+00  0.0000000000000D+00  0.0000000000000D+00
   240  2.3900000000000D+00  0.0000000000000D+00  0.0000000000000D+00
   241  2.4000000000000D+00  0.0000000000000D+00  0.0000000000000D+00
   242  2.4100000000000D+00  0.0000000000000D+00  0.0000000000000D+00
   243  2.4200000000000D+00  0.0000000000000D+00  0.0000000000000D+00
   244  2.4300000000000D+00  0.0000000000000D+00  0.0000000000000D+00
   245  2.4400000000000D+00  0.0000000000000D+00  0.0000000000000D+00
   246  2.4500000000000D+00  0.0000000000000D+00  0.0000000000000D+00
   247  2.4600000000000D+00  0.0000000000000D+00  0.0000000000000D+00
   248  2.4700000000000D+00  0.0000000000000D+00  0.0000000000000D+00
   249  2.4800000000000D+00  0.0000000000000D+00  0.0000000000000D+00
   250  2.4900000000000D+00  0.0000000000000D+00  0.0000000000000D+00
   251  2.5000000000000D+00  0.0000000000000D+00  0.0000000000000D+00
   252  2.5100000000000D+00  0.0000000000000D+00  0.0000000000000D+00
   253  2.5200000000000D+00  0.0000000000000D+00  0.0000000000000D+00
   254  2.5300000000000D+00  0.0000000000000D+00  0.0000000000000D+00
   255  2.5400000000000D+00  0.0000000000000D+00  0.0000000000000D+00
   256  2.5500000000000D+00  0.0000000000000D+00  0.0000000000000D+00
   257  2.5600000000000D+00  0.0000000000000D+00  0.0000000000000D+00
   258  2.5700000000000D+00  0.0000000000000D+00  0.0000000000000D+00
   259  2.5800000000000D+00  0.0000000000000D+00  0.0000000000000D+00
   260  2.5900000000000D+00  0.0000000000000D+00  0.0000000000000D+00
   261  2.6000000000000D+00  0.0000000000000D+00  0.0000000000000D+00
   262  2.6100000000000D+00  0.0000000000000D+00  0.0000000000000D+00
   263  2.6200000000000D+00  0.0000000000000D+00  0.0000000000000D+00
   264  2.6300000000000D+00  0.0000000000000D+00  0.0000000000000D+00
   265  2.6400000000000D+00  0.0000000000000D+00  0.0000000000000D+00
   266  2.6500000000000D+00  0.0000000000000D+00  0.0000000000000D+00
   267  2.6600000000000D+00  0.0000000000000D+00  0.0000000000000D+00
   268  2.6700000000000D+00  0.0000000000000D+00  0.0000000000000D+00
   269  2.6800000000000D+00  0.0000000000000D+00  0.0000000000000D+00
   270  2.6900000000000D+00  0.0000000000000D+00  0.0000000000000D+00
   271  2.7000000000000D+00  0.0000000000000D+00  0.0000000000000D+00
   272  2.7100000000000D+00  0.0000000000000D+00  0.0000000000000D+00
   273  2.7200000000000D+00  0.0000000000000D+00  0.0000000000000D+00
   274  2.7300000000000D+00  0.0000000000000D+00  0.0000000000000D+00
   275  2.7400000000000D+00  0.0000000000000D+00  0.0000000000000D+00
   276  2.7500000000000D+00  0.0000000000000D+00  0.0000000000000D+00
   277  2.7600000000000D+00  0.0000000000000D+00  0.0000000000000D+00
   278  2.7700000000000D+00  0.0000000000000D+00  0.0000000000000D+00
   279  2.7800000000000D+00  0.0000000000000D+00  0.0000000000000D+00
   280  2.7900000000000D+00  0.0000000000000D+00  0.0000000000000D+00
   281  2.8000000000000D+00  0.0000000000000D+00  0.0000000000000D+00
   282  2.8100000000000D+00  0.0000000000000D+00  0.0000000000000D+00
   283  2.8200000000000D+00  0.0000000000000D+00  0.0000000000000D+00
   284  2.8300000000000D+00  0.0000000000000D+00  0.0000000000000D+00
   285  2.8400000000000D+00  0.0000000000000D+00  0.0000000000000D+00
   286  2.8500000000000D+00  0.0000000000000D+00  0.0000000000000D+00
   287  2.8600000000000D+00  0.0000000000000D+00  0.0000000000000D+00
   288  2.8700000000000D+00  0.0000000000000D+00  0.0000000000000D+00
   289  2.8800000000000D+00  0.0000000000000D+00  0.0000000000000D+00
   290  2.8900000000000D+00  0.0000000000000D+00  0.0000000000000D+00
   291  2.9000000000000D+00  0.0000000000000D+00  0.0000000000000D+00
   292  2.9100000000000D+00  0.0000000000000D+00  0.0000000000000D+00
   293  2.9200000000000D+00  0.0000000000000D+00  0.0000000000000D+00
   294  2.9300000000000D+00  0.0000000000000D+00  0.0000000000000D+00
   295  2.9400000000000D+00  0.0000000000000D+00  0.0000000000000D+00
   296  2.9500000000000D+00  0.0000000000000D+00  0.0000000000000D+00
   297  2.9600000000000D+00  0.0000000000000D+00  0.0000000000000D+00
   298  2.9700000000000D+00  0.0000000000000D+00  0.0000000000000D+00
   299  2.9800000000000D+00  0.0000000000000D+00  0.0000000000000D+00
   300  2.9900000000000D+00  0.0000000000000D+00  0.0000000000000D+00
   301  3.0000000000000D+00  0.0000000000000D+00  0.0000000000000D+00
   302  3.0100000000000D+00  0.0000000000000D+00  0.0000000000000D+00
   303  3.0200000000000D+00  0.0000000000000D+00  0.0000000000000D+00
   304  3.0300000000000D+00  0.0000000000000D+00  0.0000000000000D+00
   305  3.0400000000000D+00  0.0000000000000D+00  0.0000000000000D+00
   306  3.0500000000000D+00  0.0000000000000D+00  0.0000000000000D+00
   307  3.0600000000000D+00  0.0000000000000D+00  0.0000000000000D+00
   308  3.0700000000000D+00  0.0000000000000D+00  0.0000000000000D+00
   309  3.0800000000000D+00  0.0000000000000D+00  0.0000000000000D+00
   310  3.0900000000000D+00  0.0000000000000D+00  0.0000000000000D+00
   311  3.1000000000000D+00  0.0000000000000D+00  0.0000000000000D+00
   312  3.1100000000000D+00  0.0000000000000D+00  0.0000000000000D+00
   313  3.1200000000000D+00  0.0000000000000D+00  0.0000000000000D+00
   314  3.1300000000000D+00  0.0000000000000D+00  0.0000000000000D+00
   315  3.1400000000000D+00  0.0000000000000D+00  0.0000000000000D+00
   316  3.1500000000000D+00  0.0000000000000D+00  0.0000000000000D+00
   317  3.1600000000000D+00  0.0000000000000D+00  0.0000000000000D+00
   318  3.1700000000000D+00  0.0000000000000D+00  0.0000000000000D+00
   319  3.1800000000000D+00  0.0000000000000D+00  0.0000000000000D+00
   320  3.1900000000000D+00  0.0000000000000D+00  0.0000000000000D+00
   321  3.2000000000000D+00  0.0000000000000D+00  0.0000000000000D+00
   322  3.2100000000000D+00  0.0000000000000D+00  0.0000000000000D+00
   323  3.2200000000000D+00  0.0000000000000D+00  0.0000000000000D+00
   324  3.2300000000000D+00  0.0000000000000D+00  0.0000000000000D+00
   325  3.2400000000000D+00  0.0000000000000D+00  0.0000000000000D+00
   326  3.2500000000000D+00  0.0000000000000D+00  0.0000000000000D+00
   327  3.2600000000000D+00  0.0000000000000D+00  0.0000000000000D+00
   328  3.2700000000000D+00  0.0000000000000D+00  0.0000000000000D+00
   329  3.2800000000000D+00  0.0000000000000D+00  0.0000000000000D+00
   330  3.2900000000000D+00  0.0000000000000D+00  0.0000000000000D+00
   331  3.3000000000000D+00  0.0000000000000D+00  0.0000000000000D+00
   332  3.3100000000000D+00  0.0000000000000D+00  0.0000000000000D+00
   333  3.3200000000000D+00  0.0000000000000D+00  0.0000000000000D+00
   334  3.3300000000000D+00  0.0000000000000D+00  0.0000000000000D+00
   335  3.3400000000000D+00  0.0000000000000D+00  0.0000000000000D+00
   336  3.3500000000000D+00  0.0000000000000D+00  0.0000000000000D+00
   337  3.3600000000000D+00  0.0000000000000D+00  0.0000000000000D+00
   338  3.3700000000000D+00  0.0000000000000D+00  0.0000000000000D+00
   339  3.3800000000000D+00  0.0000000000000D+00  0.0000000000000D+00
   340  3.3900000000000D+00  0.0000000000000D+00  0.0000000000000D+00
   341  3.4000000000000D+00  0.0000000000000D+00  0.0000000000000D+00
   342  3.4100000000000D+00  0.0000000000000D+00  0.0000000000000D+00
   343  3.4200000000000D+00  0.0000000000000D+00  0.0000000000000D+00
   344  3.4300000000000D+00  0.0000000000000D+00  0.0000000000000D+00
   345  3.4400000000000D+00  0.0000000000000D+00  0.0000000000000D+00
   346  3.4500000000000D+00  0.0000000000000D+00  0.0000000000000D+00
   347  3.4600000000000D+00  0.0000000000000D+00  0.0000000000000D+00
   348  3.4700000000000D+00  0.0000000000000D+00  0.0000000000000D+00
   349  3.4800000000000D+00  0.0000000000000D+00  0.0000000000000D+00
   350  3.4900000000000D+00  0.0000000000000D+00  0.0000000000000D+00
   351  3.5000000000000D+00  0.0000000000000D+00  0.0000000000000D+00
   352  3.5100000000000D+00  0.0000000000000D+00  0.0000000000000D+00
   353  3.5200000000000D+00  0.0000000000000D+00  0.0000000000000D+00
   354  3.5300000000000D+00  0.0000000000000D+00  0.0000000000000D+00
   355  3.5400000000000D+00  0.0000000000000D+00  0.0000000000000D+00
   356  3.5500000000000D+00  0.0000000000000D+00  0.0000000000000D+00
   357  3.5600000000000D+00  0.0000000000000D+00  0.0000000000000D+00
   358  3.5700000000000D+00  0.0000000000000D+00  0.0000000000000D+00
   359  3.5800000000000D+00  0.0000000000000D+00  0.0000000000000D+00
   360  3.5900000000000D+00  0.0000000000000D+00  0.0000000000000D+00
   361  3.6000000000000D+00  0.0000000000000D+00  0.0000000000000D+00
   362  3.6100000000000D+00  0.0000000000000D+00  0.0000000000000D+00
   363  3.6200000000000D+00  0.0000000000000D+00  0.0000000000000D+00
   364  3.6300000000000D+00  0.0000000000000D+00  0.0000000000000D+00
   365  3.6400000000000D+00  0.0000000000000D+00  0.0000000000000D+00
   366  3.6500000000000D+00  0.0000000000000D+00  0.0000000000000D+00
   367  3.6600000000000D+00  0.0000000000000D+00  0.0000000000000D+00
   368  3.6700000000000D+00  0.0000000000000D+00  0.0000000000000D+00
   369  3.6800000000000D+00  0.0000000000000D+00  0.0000000000000D+00
   370  3.6900000000000D+00  0.0000000000000D+00  0.0000000000000D+00
   371  3.7000000000000D+00  0.0000000000000D+00  0.0000000000000D+00
   372  3.7100000000000D+00  0.0000000000000D+00  0.0000000000000D+00
   373  3.7200000000000D+00  0.0000000000000D+00  0.0000000000000D+00
   374  3.7300000000000D+00  0.0000000000000D+00  0.0000000000000D+00
   375  3.7400000000000D+00  0.0000000000000D+00  0.0000000000000D+00
   376  3.7500000000000D+00  0.0000000000000D+00  0.0000000000000D+00
   377  3.7600000000000D+00  0.0000000000000D+00  0.0000000000000D+00
   378  3.7700000000000D+00  0.0000000000000D+00  0.0000000000000D+00
   379  3.7800000000000D+00  0.0000000000000D+00  0.0000000000000D+00
   380  3.7900000000000D+00  0.0000000000000D+00  0.0000000000000D+00
   381  3.8000000000000D+00  0.0000000000000D+00  0.0000000000000D+00
   382  3.8100000000000D+00  0.0000000000000D+00  0.0000000000000D+00
   383  3.8200000000000D+00  0.0000000000000D+00  0.0000000000000D+00
   384  3.8300000000000D+00  0.0000000000000D+00  0.0000000000000D+00
   385  3.8400000000000D+00  0.0000000000000D+00  0.0000000000000D+00
   386  3.8500000000000D+00  0.0000000000000D+00  0.0000000000000D+00
   387  3.8600000000000D+00  0.0000000000000D+00  0.0000000000000D+00
   388  3.8700000000000D+00  0.0000000000000D+00  0.0000000000000D+00
   389  3.8800000000000D+00  0.0000000000000D+00  0.0000000000000D+00
   390  3.8900000000000D+00  0.0000000000000D+00  0.0000000000000D+00
   391  3.9000000000000D+00  0.0000000000000D+00  0.0000000000000D+00
   392  3.9100000000000D+00  0.0000000000000D+00  0.0000000000000D+00
   393  3.9200000000000D+00  0.0000000000000D+00  0.0000000000000D+00
   394  3.9300000000000D+00  0.0000000000000D+00  0.0000000000000D+00
   395  3.9400000000000D+00  0.0000000000000D+00  0.0000000000000D+00
   396  3.9500000000000D+00  0.0000000000000D+00  0.0000000000000D+00
   397  3.9600000000000D+00  0.0000000000000D+00  0.0000000000000D+00
   398  3.9700000000000D+00  0.0000000000000D+00  0.0000000000000D+00
   399  3.9800000000000D+00  0.0000000000000D+00  0.0000000000000D+00
   400  3.9900000000000D+00  0.0000000000000D+00  0.0000000000000D+00
   401  4.0000000000000D+00  0.0000000000000D+00  0.0000000000000D+00
   402  4.0100000000000D+00  0.0000000000000D+00  0.0000000000000D+00
   403  4.0200000000000D+00  0.0000000000000D+00  0.0000000000000D+00
   404  4.0300000000000D+00  0.0000000000000D+00  0.0000000000000D+00
   405  4.0400000000000D+00  0.0000000000000D+00  0.0000000000000D+00
   406  4.0500000000000D+00  0.0000000000000D+00  0.0000000000000D+00
   407  4.0600000000000D+00  0.0000000000000D+00  0.0000000000000D+00
   408  4.0700000000000D+00  0.0000000000000D+00  0.0000000000000D+00
   409  4.0800000000000D+00  0.0000000000000D+00  0.0000000000000D+00
   410  4.0900000000000D+00  0.0000000000000D+00  0.0000000000000D+00
   411  4.1000000000000D+00  0.0000000000000D+00  0.0000000000000D+00
   412  4.1100000000000D+00  0.0000000000000D+00  0.0000000000000D+00
   413  4.1200000000000D+00  0.0000000000000D+00  0.0000000000000D+00
   414  4.1300000000000D+00  0.0000000000000D+00  0.0000000000000D+00
   415  4.1400000000000D+00  0.0000000000000D+00  0.0000000000000D+00
   416  4.1500000000000D+00  0.0000000000000D+00  0.0000000000000D+00
   417  4.1600000000000D+00  0.0000000000000D+00  0.0000000000000D+00
   418  4.1700000000000D+00  0.0000000000000D+00  0.0000000000000D+00
   419  4.1800000000000D+00  0.0000000000000D+00  0.0000000000000D+00
   420  4.1900000000000D+00  0.0000000000000D+00  0.0000000000000D+00
   421  4.2000000000000D+00  0.0000000000000D+00  0.0000000000000D+00
   422  4.2100000000000D+00  0.0000000000000D+00  0.0000000000000D+00