K     ONCVPSP-3.3.0  r_core=   1.36296   1.46408   1.61068
     19.0000      9.0000      220408    zatom,zion,pspd
     8       2   2     4   400     0    pspcod,pspxc,lmax,lloc,mmax,r2well
  3.99000000  0.00000000  0.00000000    rchrg fchrg qchrg
     2     2     2     0     0    nproj
     1     1           extension_switch
   0                         1.0940188188216D+01  8.2960130937595D-01
     1  0.0000000000000D+00  1.2093454015982D-10  1.2977388608171D-10
     2  1.0000000000000D-02  5.7884795220985D-02 -3.1876697961903D-02
     3  2.0000000000000D-02  1.1570150998603D-01 -6.3655472645660D-02
     4  3.0000000000000D-02  1.7338194557803D-01 -9.5238535134366D-02
     5  4.0000000000000D-02  2.3085766948026D-01 -1.2652836450139D-01
     6  5.0000000000000D-02  2.8805990525204D-01 -1.5742784000945D-01
     7  6.0000000000000D-02  3.4491943044841D-01 -1.8784037125015D-01
     8  7.0000000000000D-02  4.0136648512157D-01 -2.1767002569445D-01
     9  8.0000000000000D-02  4.5733069332094D-01 -2.4682165325450D-01
    10  9.0000000000000D-02  5.1274099986016D-01 -2.7520100761326D-01
    11  1.0000000000000D-01  5.6752562444445D-01 -3.0271486425747D-01
    12  1.1000000000000D-01  6.2161203505301D-01 -3.2927113534668D-01
    13  1.2000000000000D-01  6.7492694225028D-01 -3.5477898176129D-01
    14  1.3000000000000D-01  7.2739631585943D-01 -3.7914892289127D-01
    15  1.4000000000000D-01  7.7894542517438D-01 -4.0229294494750D-01
    16  1.5000000000000D-01  8.2949890361516D-01 -4.2412460879437D-01
    17  1.6000000000000D-01  8.7898083844924D-01 -4.4455915850983D-01
    18  1.7000000000000D-01  9.2731488591091D-01 -4.6351363206923D-01
    19  1.8000000000000D-01  9.7442441175553D-01 -4.8090697571922D-01
    20  1.9000000000000D-01  1.0202326569889D+00 -4.9666016374909D-01
    21  2.0000000000000D-01  1.0646629282164D+00 -5.1069632547579D-01
    22  2.1000000000000D-01  1.1076388117662D+00 -5.2294088132974D-01
    23  2.2000000000000D-01  1.1490844104583D+00 -5.3332168995670D-01
    24  2.3000000000000D-01  1.1889246016200D+00 -5.4176920823442D-01
    25  2.4000000000000D-01  1.2270853146888D+00 -5.4821666603585D-01
    26  2.5000000000000D-01  1.2634938265057D+00 -5.5260025745480D-01
    27  2.6000000000000D-01  1.2980790721747D+00 -5.5485935004011D-01
    28  2.7000000000000D-01  1.3307719691702D+00 -5.5493671336409D-01
    29  2.8000000000000D-01  1.3615057521877D+00 -5.5277876797772D-01
    30  2.9000000000000D-01  1.3902163160902D+00 -5.4833585548316D-01
    31  3.0000000000000D-01  1.4168425641686D+00 -5.4156253008487D-01
    32  3.1000000000000D-01  1.4413267588422D+00 -5.3241787156807D-01
    33  3.2000000000000D-01  1.4636148718525D+00 -5.2086581920295D-01
    34  3.3000000000000D-01  1.4836569309645D+00 -5.0687552558933D-01
    35  3.4000000000000D-01  1.5014073601796D+00 -4.9042172894694D-01
    36  3.5000000000000D-01  1.5168253104794D+00 -4.7148514182825D-01
    37  3.6000000000000D-01  1.5298749781701D+00 -4.5005285369158D-01
    38  3.7000000000000D-01  1.5405259079700D+00 -4.2611874423022D-01
    39  3.8000000000000D-01  1.5487532780834D+00 -3.9968390381921D-01
    40  3.9000000000000D-01  1.5545381646345D+00 -3.7075705692192D-01
    41  4.0000000000000D-01  1.5578677829818D+00 -3.3935498380542D-01
    42  4.1000000000000D-01  1.5587357036098D+00 -3.0550293545636D-01
    43  4.2000000000000D-01  1.5571420404862D+00 -2.6923503617309D-01
    44  4.3000000000000D-01  1.5530936099823D+00 -2.3059466795231D-01
    45  4.4000000000000D-01  1.5466040586820D+00 -1.8963483048727D-01
    46  4.5000000000000D-01  1.5376939586425D+00 -1.4641847036908D-01
    47  4.6000000000000D-01  1.5263908689160D+00 -1.0101877293036D-01
    48  4.7000000000000D-01  1.5127293624017D+00 -5.3519410104636D-02
    49  4.8000000000000D-01  1.4967510173532D+00 -4.0147376965598D-03
    50  4.9000000000000D-01  1.4785043731318D+00  4.7390064425011D-02
    51  5.0000000000000D-01  1.4580448500586D+00  1.0057891548843D-01
    52  5.1000000000000D-01  1.4354346334722D+00  1.5542482630035D-01
    53  5.2000000000000D-01  1.4107425223592D+00  2.1178996660466D-01
    54  5.3000000000000D-01  1.3840437431632D+00  2.6952581237105D-01
    55  5.4000000000000D-01  1.3554197296173D+00  3.2847337746486D-01
    56  5.5000000000000D-01  1.3249578696684D+00  3.8846353345985D-01
    57  5.6000000000000D-01  1.2927512207696D+00  4.4931742058072D-01
    58  5.7000000000000D-01  1.2588981950151D+00  5.1084695190874D-01
    59  5.8000000000000D-01  1.2235022157690D+00  5.7285541206395D-01
    60  5.9000000000000D-01  1.1866713476023D+00  6.3513815059296D-01
    61  6.0000000000000D-01  1.1485179014975D+00  6.9748336926533D-01
    62  6.1000000000000D-01  1.1091580174043D+00  7.5967300140945D-01
    63  6.2000000000000D-01  1.0687112263411D+00  8.2148368033120D-01
    64  6.3000000000000D-01  1.0272999943237D+00  8.8268779275424D-01
    65  6.4000000000000D-01  9.8504925047541D-01  9.4305461211904D-01
    66  6.5000000000000D-01  9.4208590172895D-01  1.0023515054993D+00
    67  6.6000000000000D-01  8.9853833656518D-01  1.0603452068380D+00
    68  6.7000000000000D-01  8.5453592025842D-01  1.1168031481999D+00
    69  6.8000000000000D-01  8.1020848410424D-01  1.1714948397935D+00
    70  6.9000000000000D-01  7.6568581109997D-01  1.2241932886354D+00
    71  7.0000000000000D-01  7.2109712052979D-01  1.2746764449444D+00
    72  7.1000000000000D-01  6.7657055387767D-01  1.3227286646569D+00
    73  7.2000000000000D-01  6.3223266445241D-01  1.3681421758721D+00
    74  7.3000000000000D-01  5.8820791306347D-01  1.4107185365646D+00
    75  7.4000000000000D-01  5.4461817203271D-01  1.4502700705549D+00
    76  7.5000000000000D-01  5.0158223976955D-01  1.4866212685168D+00
    77  7.6000000000000D-01  4.5921536807487D-01  1.5196101407176D+00
    78  7.7000000000000D-01  4.1762880427439D-01  1.5490895082429D+00
    79  7.8000000000000D-01  3.7692935021571D-01  1.5749282196532D+00
    80  7.9000000000000D-01  3.3721894009661D-01  1.5970122803493D+00
    81  8.0000000000000D-01  2.9859423902496D-01  1.6152458823852D+00
    82  8.1000000000000D-01  2.6114626414449D-01  1.6295523230615D+00
    83  8.2000000000000D-01  2.2496003009582D-01  1.6398748013420D+00
    84  8.3000000000000D-01  1.9011422051864D-01  1.6461770819613D+00
    85  8.4000000000000D-01  1.5668088723899D-01  1.6484440180182D+00
    86  8.5000000000000D-01  1.2472517872526D-01  1.6466819238647D+00
    87  8.6000000000000D-01  9.4305099337724D-02  1.6409187911924D+00
    88  8.7000000000000D-01  6.5471300837996D-02  1.6312043423727D+00
    89  8.8000000000000D-01  3.8266907567659D-02  1.6176099163086D+00
    90  8.9000000000000D-01  1.2727376647165D-02  1.6002281832838D+00
    91  9.0000000000000D-01 -1.1119605512201D-02  1.5791726865437D+00
    92  9.1000000000000D-01 -3.3254189151063D-02  1.5545772095789D+00
    93  9.2000000000000D-01 -5.3664388389688D-02  1.5265949693048D+00
    94  9.3000000000000D-01 -7.2346068637220D-02  1.4953976365150D+00
    95  9.4000000000000D-01 -8.9302893149516D-02  1.4611741861162D+00
    96  9.5000000000000D-01 -1.0454622777750D-01  1.4241295807122D+00
    97  9.6000000000000D-01 -1.1809500302904D-01  1.3844832920841D+00
    98  9.7000000000000D-01 -1.2997553265533D-01  1.3424676660008D+00
    99  9.8000000000000D-01 -1.4022128806656D-01  1.2983261365676D+00
   100  9.9000000000000D-01 -1.4887262798353D-01  1.2523112969751D+00
   101  1.0000000000000D+00 -1.5597648284121D-01  1.2046828340516D+00
   102  1.0100000000000D+00 -1.6158599357654D-01  1.1557053344156D+00
   103  1.0200000000000D+00 -1.6576010456051D-01  1.1056459702944D+00
   104  1.0300000000000D+00 -1.6856311055929D-01  1.0547720731965D+00
   105  1.0400000000000D+00 -1.7006415775472D-01  1.0033486036258D+00
   106  1.0500000000000D+00 -1.7033669899595D-01  9.5163552486458D-01
   107  1.0600000000000D+00 -1.6945790360242D-01  8.9988508858439D-01
   108  1.0700000000000D+00 -1.6750802219520D-01  8.4833903962698D-01
   109  1.0800000000000D+00 -1.6456970662557D-01  7.9722574077485D-01
   110  1.0900000000000D+00 -1.6072728663608D-01  7.4675723611444D-01
   111  1.1000000000000D+00 -1.5606601535870D-01  6.9712635503962D-01
   112  1.1100000000000D+00 -1.5067124109732D-01  6.4850346147795D-01
   113  1.1200000000000D+00 -1.4462755314525D-01  6.0103323191155D-01
   114  1.1300000000000D+00 -1.3801870168074D-01  5.5484006942209D-01
   115  1.1400000000000D+00 -1.3092787251580D-01  5.1003568313062D-01
   116  1.1500000000000D+00 -1.2343780350920D-01  4.6672382459425D-01
   117  1.1600000000000D+00 -1.1563038172506D-01  4.2499895578601D-01
   118  1.1700000000000D+00 -1.0758638142010D-01  3.8494668441557D-01
   119  1.1800000000000D+00 -9.9385169643131D-02  3.4664382436552D-01
   120  1.1900000000000D+00 -9.1104423941671D-02  3.1015862401965D-01
   121  1.2000000000000D+00 -8.2819852840218D-02  2.7555102948123D-01
   122  1.2100000000000D+00 -7.4604922821384D-02  2.4287300799087D-01
   123  1.2200000000000D+00 -6.6530592438497D-02  2.1216891883196D-01
   124  1.2300000000000D+00 -5.8665054597829D-02  1.8347592340008D-01
   125  1.2400000000000D+00 -5.1073488067897D-02  1.5682442575093D-01
   126  1.2500000000000D+00 -4.3817819284028D-02  1.3223853440078D-01
   127  1.2600000000000D+00 -3.6956495488567D-02  1.0973653630737D-01
   128  1.2700000000000D+00 -3.0544270253007D-02  8.9331373765862D-02
   129  1.2800000000000D+00 -2.4632002388251D-02  7.1031115039825D-02
   130  1.2900000000000D+00 -1.9266469177019D-02  5.4839410128349D-02
   131  1.3000000000000D+00 -1.4490194870839D-02  4.0755922939910D-02
   132  1.3100000000000D+00 -1.0341295283310D-02  2.8776731955996D-02
   133  1.3200000000000D+00 -6.8550123676733D-03  1.8899177356724D-02
   134  1.3300000000000D+00 -4.0556490203691D-03  1.1100883690258D-02
   135  1.3400000000000D+00 -1.9580433709292D-03  5.3437962102535D-03
   136  1.3500000000000D+00 -6.3957319503275D-04  1.7716360202328D-03
   137  1.3600000000000D+00 -5.2286180818798D-05  1.9560363474352D-04
   138  1.3700000000000D+00  5.9277230626976D-05 -1.2679797288880D-04
   139  1.3800000000000D+00 -2.9876023385743D-06  6.8740979031187D-06
   140  1.3900000000000D+00 -1.4373406706185D-05  3.3837966046376D-05
   141  1.4000000000000D+00  2.4380791293597D-06 -5.5625425223161D-06
   142  1.4100000000000D+00  1.4165613967651D-06 -3.2685112196075D-06
   143  1.4200000000000D+00 -4.7167782787891D-08 -2.2812976280655D-08
   144  1.4300000000000D+00  0.0000000000000D+00  0.0000000000000D+00
   145  1.4400000000000D+00  0.0000000000000D+00  0.0000000000000D+00
   146  1.4500000000000D+00  0.0000000000000D+00  0.0000000000000D+00
   147  1.4600000000000D+00  0.0000000000000D+00  0.0000000000000D+00
   148  1.4700000000000D+00  0.0000000000000D+00  0.0000000000000D+00
   149  1.4800000000000D+00  0.0000000000000D+00  0.0000000000000D+00
   150  1.4900000000000D+00  0.0000000000000D+00  0.0000000000000D+00
   151  1.5000000000000D+00  0.0000000000000D+00  0.0000000000000D+00
   152  1.5100000000000D+00  0.0000000000000D+00  0.0000000000000D+00
   153  1.5200000000000D+00  0.0000000000000D+00  0.0000000000000D+00
   154  1.5300000000000D+00  0.0000000000000D+00  0.0000000000000D+00
   155  1.5400000000000D+00  0.0000000000000D+00  0.0000000000000D+00
   156  1.5500000000000D+00  0.0000000000000D+00  0.0000000000000D+00
   157  1.5600000000000D+00  0.0000000000000D+00  0.0000000000000D+00
   158  1.5700000000000D+00  0.0000000000000D+00  0.0000000000000D+00
   159  1.5800000000000D+00  0.0000000000000D+00  0.0000000000000D+00
   160  1.5900000000000D+00  0.0000000000000D+00  0.0000000000000D+00
   161  1.6000000000000D+00  0.0000000000000D+00  0.0000000000000D+00
   162  1.6100000000000D+00  0.0000000000000D+00  0.0000000000000D+00
   163  1.6200000000000D+00  0.0000000000000D+00  0.0000000000000D+00
   164  1.6300000000000D+00  0.0000000000000D+00  0.0000000000000D+00
   165  1.6400000000000D+00  0.0000000000000D+00  0.0000000000000D+00
   166  1.6500000000000D+00  0.0000000000000D+00  0.0000000000000D+00
   167  1.6600000000000D+00  0.0000000000000D+00  0.0000000000000D+00
   168  1.6700000000000D+00  0.0000000000000D+00  0.0000000000000D+00
   169  1.6800000000000D+00  0.0000000000000D+00  0.0000000000000D+00
   170  1.6900000000000D+00  0.0000000000000D+00  0.0000000000000D+00
   171  1.7000000000000D+00  0.0000000000000D+00  0.0000000000000D+00
   172  1.7100000000000D+00  0.0000000000000D+00  0.0000000000000D+00
   173  1.7200000000000D+00  0.0000000000000D+00  0.0000000000000D+00
   174  1.7300000000000D+00  0.0000000000000D+00  0.0000000000000D+00
   175  1.7400000000000D+00  0.0000000000000D+00  0.0000000000000D+00
   176  1.7500000000000D+00  0.0000000000000D+00  0.0000000000000D+00
   177  1.7600000000000D+00  0.0000000000000D+00  0.0000000000000D+00
   178  1.7700000000000D+00  0.0000000000000D+00  0.0000000000000D+00
   179  1.7800000000000D+00  0.0000000000000D+00  0.0000000000000D+00
   180  1.7900000000000D+00  0.0000000000000D+00  0.0000000000000D+00
   181  1.8000000000000D+00  0.0000000000000D+00  0.0000000000000D+00
   182  1.8100000000000D+00  0.0000000000000D+00  0.0000000000000D+00
   183  1.8200000000000D+00  0.0000000000000D+00  0.0000000000000D+00
   184  1.8300000000000D+00  0.0000000000000D+00  0.0000000000000D+00
   185  1.8400000000000D+00  0.0000000000000D+00  0.0000000000000D+00
   186  1.8500000000000D+00  0.0000000000000D+00  0.0000000000000D+00
   187  1.8600000000000D+00  0.0000000000000D+00  0.0000000000000D+00
   188  1.8700000000000D+00  0.0000000000000D+00  0.0000000000000D+00
   189  1.8800000000000D+00  0.0000000000000D+00  0.0000000000000D+00
   190  1.8900000000000D+00  0.0000000000000D+00  0.0000000000000D+00
   191  1.9000000000000D+00  0.0000000000000D+00  0.0000000000000D+00
   192  1.9100000000000D+00  0.0000000000000D+00  0.0000000000000D+00
   193  1.9200000000000D+00  0.0000000000000D+00  0.0000000000000D+00
   194  1.9300000000000D+00  0.0000000000000D+00  0.0000000000000D+00
   195  1.9400000000000D+00  0.0000000000000D+00  0.0000000000000D+00
   196  1.9500000000000D+00  0.0000000000000D+00  0.0000000000000D+00
   197  1.9600000000000D+00  0.0000000000000D+00  0.0000000000000D+00
   198  1.9700000000000D+00  0.0000000000000D+00  0.0000000000000D+00
   199  1.9800000000000D+00  0.0000000000000D+00  0.0000000000000D+00
   200  1.9900000000000D+00  0.0000000000000D+00  0.0000000000000D+00
   201  2.0000000000000D+00  0.0000000000000D+00  0.0000000000000D+00
   202  2.0100000000000D+00  0.0000000000000D+00  0.0000000000000D+00
   203  2.0200000000000D+00  0.0000000000000D+00  0.0000000000000D+00
   204  2.0300000000000D+00  0.0000000000000D+00  0.0000000000000D+00
   205  2.0400000000000D+00  0.0000000000000D+00  0.0000000000000D+00
   206  2.0500000000000D+00  0.0000000000000D+00  0.0000000000000D+00
   207  2.0600000000000D+00  0.0000000000000D+00  0.0000000000000D+00
   208  2.0700000000000D+00  0.0000000000000D+00  0.0000000000000D+00
   209  2.0800000000000D+00  0.0000000000000D+00  0.0000000000000D+00
   210  2.0900000000000D+00  0.0000000000000D+00  0.0000000000000D+00
   211  2.1000000000000D+00  0.0000000000000D+00  0.0000000000000D+00
   212  2.1100000000000D+00  0.0000000000000D+00  0.0000000000000D+00
   213  2.1200000000000D+00  0.0000000000000D+00  0.0000000000000D+00
   214  2.1300000000000D+00  0.0000000000000D+00  0.0000000000000D+00
   215  2.1400000000000D+00  0.0000000000000D+00  0.0000000000000D+00
   216  2.1500000000000D+00  0.0000000000000D+00  0.0000000000000D+00
   217  2.1600000000000D+00  0.0000000000000D+00  0.0000000000000D+00
   218  2.1700000000000D+00  0.0000000000000D+00  0.0000000000000D+00
   219  2.1800000000000D+00  0.0000000000000D+00  0.0000000000000D+00
   220  2.1900000000000D+00  0.0000000000000D+00  0.0000000000000D+00
   221  2.2000000000000D+00  0.0000000000000D+00  0.0000000000000D+00
   222  2.2100000000000D+00  0.0000000000000D+00  0.0000000000000D+00
   223  2.2200000000000D+00  0.0000000000000D+00  0.0000000000000D+00
   224  2.2300000000000D+00  0.0000000000000D+00  0.0000000000000D+00
   225  2.2400000000000D+00  0.0000000000000D+00  0.0000000000000D+00
   226  2.2500000000000D+00  0.0000000000000D+00  0.0000000000000D+00
   227  2.2600000000000D+00  0.0000000000000D+00  0.0000000000000D+00
   228  2.2700000000000D+00  0.0000000000000D+00  0.0000000000000D+00
   229  2.2800000000000D+00  0.0000000000000D+00  0.0000000000000D+00
   230  2.2900000000000D+00  0.0000000000000D+00  0.0000000000000D+00
   231  2.3000000000000D+00  0.0000000000000D+00  0.0000000000000D+00
   232  2.3100000000000D+00  0.0000000000000D+00  0.0000000000000D+00
   233  2.3200000000000D+00  0.0000000000000D+00  0.0000000000000D+00
   234  2.3300000000000D+00  0.0000000000000D+00  0.0000000000000D+00
   235  2.3400000000000D+00  0.0000000000000D+00  0.0000000000000D+00
   236  2.3500000000000D+00  0.0000000000000D+00  0.0000000000000D+00
   237  2.3600000000000D+00  0.0000000000000D+00  0.0000000000000D+00
   238  2.3700000000000D+00  0.0000000000000D+00  0.0000000000000D+00
   239  2.3800000000000D+00  0.0000000000000D+00  0.0000000000000D+00
   240  2.3900000000000D+00  0.0000000000000D+00  0.0000000000000D+00
   241  2.4000000000000D+00  0.0000000000000D+00  0.0000000000000D+00
   242  2.4100000000000D+00  0.0000000000000D+00  0.0000000000000D+00
   243  2.4200000000000D+00  0.0000000000000D+00  0.0000000000000D+00
   244  2.4300000000000D+00  0.0000000000000D+00  0.0000000000000D+00
   245  2.4400000000000D+00  0.0000000000000D+00  0.0000000000000D+00
   246  2.4500000000000D+00  0.0000000000000D+00  0.0000000000000D+00
   247  2.4600000000000D+00  0.0000000000000D+00  0.0000000000000D+00
   248  2.4700000000000D+00  0.0000000000000D+00  0.0000000000000D+00
   249  2.4800000000000D+00  0.0000000000000D+00  0.0000000000000D+00
   250  2.4900000000000D+00  0.0000000000000D+00  0.0000000000000D+00
   251  2.5000000000000D+00  0.0000000000000D+00  0.0000000000000D+00
   252  2.5100000000000D+00  0.0000000000000D+00  0.0000000000000D+00
   253  2.5200000000000D+00  0.0000000000000D+00  0.0000000000000D+00
   254  2.5300000000000D+00  0.0000000000000D+00  0.0000000000000D+00
   255  2.5400000000000D+00  0.0000000000000D+00  0.0000000000000D+00
   256  2.5500000000000D+00  0.0000000000000D+00  0.0000000000000D+00
   257  2.5600000000000D+00  0.0000000000000D+00  0.0000000000000D+00
   258  2.5700000000000D+00  0.0000000000000D+00  0.0000000000000D+00
   259  2.5800000000000D+00  0.0000000000000D+00  0.0000000000000D+00
   260  2.5900000000000D+00  0.0000000000000D+00  0.0000000000000D+00
   261  2.6000000000000D+00  0.0000000000000D+00  0.0000000000000D+00
   262  2.6100000000000D+00  0.0000000000000D+00  0.0000000000000D+00
   263  2.6200000000000D+00  0.0000000000000D+00  0.0000000000000D+00
   264  2.6300000000000D+00  0.0000000000000D+00  0.0000000000000D+00
   265  2.6400000000000D+00  0.0000000000000D+00  0.0000000000000D+00
   266  2.6500000000000D+00  0.0000000000000D+00  0.0000000000000D+00
   267  2.6600000000000D+00  0.0000000000000D+00  0.0000000000000D+00
   268  2.6700000000000D+00  0.0000000000000D+00  0.0000000000000D+00
   269  2.6800000000000D+00  0.0000000000000D+00  0.0000000000000D+00
   270  2.6900000000000D+00  0.0000000000000D+00  0.0000000000000D+00
   271  2.7000000000000D+00  0.0000000000000D+00  0.0000000000000D+00
   272  2.7100000000000D+00  0.0000000000000D+00  0.0000000000000D+00
   273  2.7200000000000D+00  0.0000000000000D+00  0.0000000000000D+00
   274  2.7300000000000D+00  0.0000000000000D+00  0.0000000000000D+00
   275  2.7400000000000D+00  0.0000000000000D+00  0.0000000000000D+00
   276  2.7500000000000D+00  0.0000000000000D+00  0.0000000000000D+00
   277  2.7600000000000D+00  0.0000000000000D+00  0.0000000000000D+00
   278  2.7700000000000D+00  0.0000000000000D+00  0.0000000000000D+00
   279  2.7800000000000D+00  0.0000000000000D+00  0.0000000000000D+00
   280  2.7900000000000D+00  0.0000000000000D+00  0.0000000000000D+00
   281  2.8000000000000D+00  0.0000000000000D+00  0.0000000000000D+00
   282  2.8100000000000D+00  0.0000000000000D+00  0.0000000000000D+00
   283  2.8200000000000D+00  0.0000000000000D+00  0.0000000000000D+00
   284  2.8300000000000D+00  0.0000000000000D+00  0.0000000000000D+00
   285  2.8400000000000D+00  0.0000000000000D+00  0.0000000000000D+00
   286  2.8500000000000D+00  0.0000000000000D+00  0.0000000000000D+00
   287  2.8600000000000D+00  0.0000000000000D+00  0.0000000000000D+00
   288  2.8700000000000D+00  0.0000000000000D+00  0.0000000000000D+00
   289  2.8800000000000D+00  0.0000000000000D+00  0.0000000000000D+00
   290  2.8900000000000D+00  0.0000000000000D+00  0.0000000000000D+00
   291  2.9000000000000D+00  0.0000000000000D+00  0.0000000000000D+00
   292  2.9100000000000D+00  0.0000000000000D+00  0.0000000000000D+00
   293  2.9200000000000D+00  0.0000000000000D+00  0.0000000000000D+00
   294  2.9300000000000D+00  0.0000000000000D+00  0.0000000000000D+00
   295  2.9400000000000D+00  0.0000000000000D+00  0.0000000000000D+00
   296  2.9500000000000D+00  0.0000000000000D+00  0.0000000000000D+00
   297  2.9600000000000D+00  0.0000000000000D+00  0.0000000000000D+00
   298  2.9700000000000D+00  0.0000000000000D+00  0.0000000000000D+00
   299  2.9800000000000D+00  0.0000000000000D+00  0.0000000000000D+00
   300  2.9900000000000D+00  0.0000000000000D+00  0.0000000000000D+00
   301  3.0000000000000D+00  0.0000000000000D+00  0.0000000000000D+00
   302  3.0100000000000D+00  0.0000000000000D+00  0.0000000000000D+00
   303  3.0200000000000D+00  0.0000000000000D+00  0.0000000000000D+00
   304  3.0300000000000D+00  0.0000000000000D+00  0.0000000000000D+00
   305  3.0400000000000D+00  0.0000000000000D+00  0.0000000000000D+00
   306  3.0500000000000D+00  0.0000000000000D+00  0.0000000000000D+00
   307  3.0600000000000D+00  0.0000000000000D+00  0.0000000000000D+00
   308  3.0700000000000D+00  0.0000000000000D+00  0.0000000000000D+00
   309  3.0800000000000D+00  0.0000000000000D+00  0.0000000000000D+00
   310  3.0900000000000D+00  0.0000000000000D+00  0.0000000000000D+00
   311  3.1000000000000D+00  0.0000000000000D+00  0.0000000000000D+00
   312  3.1100000000000D+00  0.0000000000000D+00  0.0000000000000D+00
   313  3.1200000000000D+00  0.0000000000000D+00  0.0000000000000D+00
   314  3.1300000000000D+00  0.0000000000000D+00  0.0000000000000D+00
   315  3.1400000000000D+00  0.0000000000000D+00  0.0000000000000D+00
   316  3.1500000000000D+00  0.0000000000000D+00  0.0000000000000D+00
   317  3.1600000000000D+00  0.0000000000000D+00  0.0000000000000D+00
   318  3.1700000000000D+00  0.0000000000000D+00  0.0000000000000D+00
   319  3.1800000000000D+00  0.0000000000000D+00  0.0000000000000D+00
   320  3.1900000000000D+00  0.0000000000000D+00  0.0000000000000D+00
   321  3.2000000000000D+00  0.0000000000000D+00  0.0000000000000D+00
   322  3.2100000000000D+00  0.0000000000000D+00  0.0000000000000D+00
   323  3.2200000000000D+00  0.0000000000000D+00  0.0000000000000D+00
   324  3.2300000000000D+00  0.0000000000000D+00  0.0000000000000D+00
   325  3.2400000000000D+00  0.0000000000000D+00  0.0000000000000D+00
   326  3.2500000000000D+00  0.0000000000000D+00  0.0000000000000D+00
   327  3.2600000000000D+00  0.0000000000000D+00  0.0000000000000D+00
   328  3.2700000000000D+00  0.0000000000000D+00  0.0000000000000D+00
   329  3.2800000000000D+00  0.0000000000000D+00  0.0000000000000D+00
   330  3.2900000000000D+00  0.0000000000000D+00  0.0000000000000D+00
   331  3.3000000000000D+00  0.0000000000000D+00  0.0000000000000D+00
   332  3.3100000000000D+00  0.0000000000000D+00  0.0000000000000D+00
   333  3.3200000000000D+00  0.0000000000000D+00  0.0000000000000D+00
   334  3.3300000000000D+00  0.0000000000000D+00  0.0000000000000D+00
   335  3.3400000000000D+00  0.0000000000000D+00  0.0000000000000D+00
   336  3.3500000000000D+00  0.0000000000000D+00  0.0000000000000D+00
   337  3.3600000000000D+00  0.0000000000000D+00  0.0000000000000D+00
   338  3.3700000000000D+00  0.0000000000000D+00  0.0000000000000D+00
   339  3.3800000000000D+00  0.0000000000000D+00  0.0000000000000D+00
   340  3.3900000000000D+00  0.0000000000000D+00  0.0000000000000D+00
   341  3.4000000000000D+00  0.0000000000000D+00  0.0000000000000D+00
   342  3.4100000000000D+00  0.0000000000000D+00  0.0000000000000D+00
   343  3.4200000000000D+00  0.0000000000000D+00  0.0000000000000D+00
   344  3.4300000000000D+00  0.0000000000000D+00  0.0000000000000D+00
   345  3.4400000000000D+00  0.0000000000000D+00  0.0000000000000D+00
   346  3.4500000000000D+00  0.0000000000000D+00  0.0000000000000D+00
   347  3.4600000000000D+00  0.0000000000000D+00  0.0000000000000D+00
   348  3.4700000000000D+00  0.0000000000000D+00  0.0000000000000D+00
   349  3.4800000000000D+00  0.0000000000000D+00  0.0000000000000D+00
   350  3.4900000000000D+00  0.0000000000000D+00  0.0000000000000D+00
   351  3.5000000000000D+00  0.0000000000000D+00  0.0000000000000D+00
   352  3.5100000000000D+00  0.0000000000000D+00  0.0000000000000D+00
   353  3.5200000000000D+00  0.0000000000000D+00  0.0000000000000D+00
   354  3.5300000000000D+00  0.0000000000000D+00  0.0000000000000D+00
   355  3.5400000000000D+00  0.0000000000000D+00  0.0000000000000D+00
   356  3.5500000000000D+00  0.0000000000000D+00  0.0000000000000D+00
   357  3.5600000000000D+00  0.0000000000000D+00  0.0000000000000D+00
   358  3.5700000000000D+00  0.0000000000000D+00  0.0000000000000D+00
   359  3.5800000000000D+00  0.0000000000000D+00  0.0000000000000D+00
   360  3.5900000000000D+00  0.0000000000000D+00  0.0000000000000D+00
   361  3.6000000000000D+00  0.0000000000000D+00  0.0000000000000D+00
   362  3.6100000000000D+00  0.0000000000000D+00  0.0000000000000D+00
   363  3.6200000000000D+00  0.0000000000000D+00  0.0000000000000D+00
   364  3.6300000000000D+00  0.0000000000000D+00  0.0000000000000D+00
   365  3.6400000000000D+00  0.0000000000000D+00  0.0000000000000D+00
   366  3.6500000000000D+00  0.0000000000000D+00  0.0000000000000D+00
   367  3.6600000000000D+00  0.0000000000000D+00  0.0000000000000D+00
   368  3.6700000000000D+00  0.0000000000000D+00  0.0000000000000D+00
   369  3.6800000000000D+00  0.0000000000000D+00  0.0000000000000D+00
   370  3.6900000000000D+00  0.0000000000000D+00  0.0000000000000D+00
   371  3.7000000000000D+00  0.0000000000000D+00  0.0000000000000D+00
   372  3.7100000000000D+00  0.0000000000000D+00  0.0000000000000D+00
   373  3.7200000000000D+00  0.0000000000000D+00  0.0000000000000D+00
   374  3.7300000000000D+00  0.0000000000000D+00  0.0000000000000D+00
   375  3.7400000000000D+00  0.0000000000000D+00  0.0000000000000D+00
   376  3.7500000000000D+00  0.0000000000000D+00  0.0000000000000D+00
   377  3.7600000000000D+00  0.0000000000000D+00  0.0000000000000D+00
   378  3.7700000000000D+00  0.0000000000000D+00  0.0000000000000D+00
   379  3.7800000000000D+00  0.0000000000000D+00  0.0000000000000D+00
   380  3.7900000000000D+00  0.0000000000000D+00  0.0000000000000D+00
   381  3.8000000000000D+00  0.0000000000000D+00  0.0000000000000D+00
   382  3.8100000000000D+00  0.0000000000000D+00  0.0000000000000D+00
   383  3.8200000000000D+00  0.0000000000000D+00  0.0000000000000D+00
   384  3.8300000000000D+00  0.0000000000000D+00  0.0000000000000D+00
   385  3.8400000000000D+00  0.0000000000000D+00  0.0000000000000D+00
   386  3.8500000000000D+00  0.0000000000000D+00  0.0000000000000D+00
   387  3.8600000000000D+00  0.0000000000000D+00  0.0000000000000D+00
   388  3.8700000000000D+00  0.0000000000000D+00  0.0000000000000D+00
   389  3.8800000000000D+00  0.0000000000000D+00  0.0000000000000D+00
   390  3.8900000000000D+00  0.0000000000000D+00  0.0000000000000D+00
   391  3.9000000000000D+00  0.0000000000000D+00  0.0000000000000D+00
   392  3.9100000000000D+00  0.0000000000000D+00  0.0000000000000D+00
   393  3.9200000000000D+00  0.0000000000000D+00  0.0000000000000D+00
   394  3.9300000000000D+00  0.0000000000000D+00  0.0000000000000D+00
   395  3.9400000000000D+00  0.0000000000000D+00  0.0000000000000D+00
   396  3.9500000000000D+00  0.0000000000000D+00  0.0000000000000D+00
   397  3.9600000000000D+00  0.0000000000000D+00  0.0000000000000D+00
   398  3.9700000000000D+00  0.0000000000000D+00  0.0000000000000D+00
   399  3.9800000000000D+00  0.0000000000000D+00  0.0000000000000D+00
   400  3.9900000000000D+00  0.0000000000000D+00  0.0000000000000D+00
   1                         4.4372075982802D+00  5.6807049393979D-01
     1  0.0000000000000D+00  3.8916075917328D-10 -1.6031426880447D-09
     2  1.0000000000000D-02  1.6171041006197D-03 -1.1963962179921D-03
     3  2.0000000000000D-02  6.4617643482054D-03 -4.7760513242016D-03
     4  3.0000000000000D-02  1.4514055880682D-02 -1.0710443563102D-02
     5  4.0000000000000D-02  2.5740874717284D-02 -1.8952298731373D-02
     6  5.0000000000000D-02  4.0096093198960D-02 -2.9435980112719D-02
     7  6.0000000000000D-02  5.7520776126093D-02 -4.2078028134930D-02
     8  7.0000000000000D-02  7.7943456134735D-02 -5.6777843606791D-02
     9  8.0000000000000D-02  1.0128046646339D-01 -7.3418506789251D-02
    10  9.0000000000000D-02  1.2743632889418D-01 -9.1867723065620D-02
    11  1.0000000000000D-01  1.5630419430805D-01 -1.1197888461741D-01
    12  1.1000000000000D-01  1.8776633297749D-01 -1.3359223630657D-01
    13  1.2000000000000D-01  2.2169467143514D-01 -1.5653613292833D-01
    14  1.3000000000000D-01  2.5795137250534D-01 -1.8062837414359D-01
    15  1.4000000000000D-01  2.9638945487037D-01 -2.0567760274184D-01
    16  1.5000000000000D-01  3.3685344836531D-01 -2.3148475142674D-01
    17  1.6000000000000D-01  3.7918008105690D-01 -2.5784452306872D-01
    18  1.7000000000000D-01  4.2319899406205D-01 -2.8454688932904D-01
    19  1.8000000000000D-01  4.6873348000198D-01 -3.1137859272926D-01
    20  1.9000000000000D-01  5.1560124096664D-01 -3.3812463761355D-01
    21  2.0000000000000D-01  5.6361516188099D-01 -3.6456975602055D-01