Rb    ONCVPSP-3.3.0  r_core=   1.71227   1.75361   1.90633
     37.0000      9.0000      220408    zatom,zion,pspd
     8       2   2     4   600     0    pspcod,pspxc,lmax,lloc,mmax,r2well
  5.99000000  0.00000000  0.00000000    rchrg fchrg qchrg
     2     2     2     0     0    nproj
     1     1           extension_switch
   0                         8.1268867493593D+00 -4.8220796065348D-01
     1  0.0000000000000D+00  3.9706382626292D-10  1.6668555147259D-09
     2  1.0000000000000D-02  5.7087165523136D-02 -7.5937274782754D-03
     3  2.0000000000000D-02  1.1411498710808D-01 -1.5066253359980D-02
     4  3.0000000000000D-02  1.7102379516245D-01 -2.2298248790782D-02
     5  4.0000000000000D-02  2.2775327568899D-01 -2.9174101368198D-02
     6  5.0000000000000D-02  2.8424216523895D-01 -3.5583701218193D-02
     7  6.0000000000000D-02  3.4042796616575D-01 -4.1424141696768D-02
     8  7.0000000000000D-02  3.9624668847226D-01 -4.6601308246300D-02
     9  8.0000000000000D-02  4.5163262414799D-01 -5.1031330603346D-02
    10  9.0000000000000D-02  5.0651815940686D-01 -5.4641875592293D-02
    11  1.0000000000000D-01  5.6083362966907D-01 -5.7373260118230D-02
    12  1.1000000000000D-01  6.1450722149006D-01 -5.9179366657712D-02
    13  1.2000000000000D-01  6.6746492493467D-01 -6.0028346499175D-02
    14  1.3000000000000D-01  7.1963053913551D-01 -5.9903099161981D-02
    15  1.4000000000000D-01  7.7092573297242D-01 -5.8801519778469D-02
    16  1.5000000000000D-01  8.2127016197546D-01 -5.6736509708018D-02
    17  1.6000000000000D-01  8.7058164170052D-01 -5.3735749214491D-02
    18  1.7000000000000D-01  9.1877637696458D-01 -4.9841234627282D-02
    19  1.8000000000000D-01  9.6576924547162D-01 -4.5108585967959D-02
    20  1.9000000000000D-01  1.0114741335205D+00 -3.9606134507486D-02
    21  2.0000000000000D-01  1.0558043206765D+00 -3.3413803071727D-02
    22  2.1000000000000D-01  1.0986729095180D+00 -2.6621795085746D-02
    23  2.2000000000000D-01  1.1399932958561D+00 -1.9329111293528D-02
    24  2.3000000000000D-01  1.1796796741650D+00 -1.1641915765309D-02
    25  2.4000000000000D-01  1.2176475723864D+00 -3.6717751694995D-03
    26  2.5000000000000D-01  1.2538144097622D+00  4.4662026952040D-03
    27  2.6000000000000D-01  1.2881000709416D+00  1.2655303469653D-02
    28  2.7000000000000D-01  1.3204274892875D+00  2.0779185028974D-02
    29  2.8000000000000D-01  1.3507232320847D+00  2.8723870806417D-02
    30  2.9000000000000D-01  1.3789180802395D+00  3.6379727567496D-02
    31  3.0000000000000D-01  1.4049475950402D+00  4.3643397614645D-02
    32  3.1000000000000D-01  1.4287526646436D+00  5.0419655904180D-02
    33  3.2000000000000D-01  1.4502800231454D+00  5.6623163496313D-02
    34  3.3000000000000D-01  1.4694827353887D+00  6.2180090123004D-02
    35  3.4000000000000D-01  1.4863206410559D+00  6.7029580429243D-02
    36  3.5000000000000D-01  1.5007607520769D+00  7.1125040596492D-02
    37  3.6000000000000D-01  1.5127775979543D+00  7.4435224562847D-02
    38  3.7000000000000D-01  1.5223535142528D+00  7.6945101877663D-02
    39  3.8000000000000D-01  1.5294788702155D+00  7.8656492328978D-02
    40  3.9000000000000D-01  1.5341522322444D+00  7.9588455815738D-02
    41  4.0000000000000D-01  1.5363804607968D+00  7.9777429456305D-02
    42  4.1000000000000D-01  1.5361787391118D+00  7.9277107579116D-02
    43  4.2000000000000D-01  1.5335705330537D+00  7.8158063977517D-02
    44  4.3000000000000D-01  1.5285874822520D+00  7.6507119575251D-02
    45  4.4000000000000D-01  1.5212692236021D+00  7.4426462386259D-02
    46  4.5000000000000D-01  1.5116631490680D+00  7.2032530307967D-02
    47  4.6000000000000D-01  1.4998241005685D+00  6.9454670807079D-02
    48  4.7000000000000D-01  1.4858140055398D+00  6.6833594889182D-02
    49  4.8000000000000D-01  1.4697014575190D+00  6.4319645838443D-02
    50  4.9000000000000D-01  1.4515612467899D+00  6.2070906024737D-02
    51  5.0000000000000D-01  1.4314738467522D+00  6.0251167561225D-02
    52  5.1000000000000D-01  1.4095248622176D+00  5.9027794716079D-02
    53  5.2000000000000D-01  1.3858044462883D+00  5.8569507706170D-02
    54  5.3000000000000D-01  1.3604066928326D+00  5.9044118801460D-02
    55  5.4000000000000D-01  1.3334290118251D+00  6.0616252523135D-02
    56  5.5000000000000D-01  1.3049714949774D+00  6.3445082114247D-02
    57  5.6000000000000D-01  1.2751362791273D+00  6.7682114388770D-02
    58  5.7000000000000D-01  1.2440269147968D+00  7.3469054523142D-02
    59  5.8000000000000D-01  1.2117477471606D+00  8.0935781349431D-02
    60  5.9000000000000D-01  1.1784033163982D+00  9.0198462251846D-02
    61  6.0000000000000D-01  1.1440977840321D+00  1.0135783488132D-01
    62  6.1000000000000D-01  1.1089343913905D+00  1.1449768060808D-01
    63  6.2000000000000D-01  1.0730149557814D+00  1.2968351195928D-01
    64  6.3000000000000D-01  1.0364394093368D+00  1.4696149329183D-01
    65  6.4000000000000D-01  9.9930538478124D-01  1.6635761063515D-01
    66  6.5000000000000D-01  9.6170785162539D-01  1.8787710310373D-01
    67  6.6000000000000D-01  9.2373880547495D-01  2.1150416452890D-01
    68  6.7000000000000D-01  8.8548701230353D-01  2.3720192006886D-01
    69  6.8000000000000D-01  8.4703780867368D-01  2.6491267858853D-01
    70  6.9000000000000D-01  8.0847295801626D-01  2.9455845760702D-01
    71  7.0000000000000D-01  7.6987056220485D-01  3.2604177362988D-01
    72  7.1000000000000D-01  7.3130502680997D-01  3.5924668682090D-01
    73  7.2000000000000D-01  6.9284707759225D-01  3.9404008523155D-01
    74  7.3000000000000D-01  6.5456382501556D-01  4.3027319030087D-01
    75  7.4000000000000D-01  6.1651887283087D-01  4.6778326205581D-01
    76  7.5000000000000D-01  5.7877246612531D-01  5.0639547950459D-01
    77  7.6000000000000D-01  5.4138167364671D-01  5.4592496911087D-01
    78  7.7000000000000D-01  5.0440059871758D-01  5.8617895203355D-01
    79  7.8000000000000D-01  4.6788061265010D-01  6.2695897904430D-01
    80  7.9000000000000D-01  4.3187060427192D-01  6.6806322072020D-01
    81  8.0000000000000D-01  3.9641723897710D-01  7.0928877967684D-01
    82  8.1000000000000D-01  3.6156522063034D-01  7.5043399126927D-01
    83  8.2000000000000D-01  3.2735754967784D-01  7.9130067935777D-01
    84  8.3000000000000D-01  2.9383577095535D-01  8.3169633440725D-01
    85  8.4000000000000D-01  2.6104020493064D-01  8.7143618235874D-01
    86  8.5000000000000D-01  2.2901015647125D-01  9.1034511436399D-01
    87  8.6000000000000D-01  1.9778409568434D-01  9.4825944958662D-01
    88  8.7000000000000D-01  1.6739980592562D-01  9.8502850581716D-01
    89  8.8000000000000D-01  1.3789449471315D-01  1.0205159555879D+00
    90  8.9000000000000D-01  1.0930486399682D-01  1.0546009487650D+00
    91  9.0000000000000D-01  8.1667137017243D-02  1.0871789861932D+00
    92  9.1000000000000D-01  5.5017039825284D-02  1.1181625328147D+00
    93  9.2000000000000D-01  2.9389736411721D-02  1.1474813627273D+00
    94  9.3000000000000D-01  4.8197173104098D-03  1.1750826328492D+00
    95  9.4000000000000D-01 -1.8659357553782D-02  1.2009306860479D+00
    96  9.5000000000000D-01 -4.1014860063141D-02  1.2250065889246D+00
    97  9.6000000000000D-01 -6.2215436547441D-02  1.2473074135966D+00
    98  9.7000000000000D-01 -8.2231288383684D-02  1.2678452769140D+00
    99  9.8000000000000D-01 -1.0103448624180D-01  1.2866461544373D+00
   100  9.9000000000000D-01 -1.1859931289066D-01  1.3037484901497D+00
   101  1.0000000000000D+00 -1.3490262877899D-01  1.3192016262115D+00
   102  1.0100000000000D+00 -1.4992425398464D-01  1.3330640800735D+00
   103  1.0200000000000D+00 -1.6364735961593D-01  1.3454016987777D+00
   104  1.0300000000000D+00 -1.7605886132040D-01  1.3562857224603D+00
   105  1.0400000000000D+00 -1.8714980725579D-01  1.3657907906938D+00
   106  1.0500000000000D+00 -1.9691575269934D-01  1.3739929264054D+00
   107  1.0600000000000D+00 -2.0535711340600D-01  1.3809675327194D+00
   108  1.0700000000000D+00 -2.1247948992164D-01  1.3867874380094D+00
   109  1.0800000000000D+00 -2.1829395520432D-01  1.3915210240971D+00
   110  1.0900000000000D+00 -2.2281729829040D-01  1.3952304712664D+00
   111  1.1000000000000D+00 -2.2607221716022D-01  1.3979701522456D+00
   112  1.1100000000000D+00 -2.2808745456836D-01  1.3997852050317D+00
   113  1.1200000000000D+00 -2.2889787127392D-01  1.4007103118456D+00
   114  1.1300000000000D+00 -2.2854445185640D-01  1.4007687085927D+00
   115  1.1400000000000D+00 -2.2707423930454D-01  1.3999714452320D+00
   116  1.1500000000000D+00 -2.2454019549930D-01  1.3983169137244D+00
   117  1.1600000000000D+00 -2.2100098575776D-01  1.3957906560379D+00
   118  1.1700000000000D+00 -2.1652068663154D-01  1.3923654605452D+00
   119  1.1800000000000D+00 -2.1116841751492D-01  1.3880017496335D+00
   120  1.1900000000000D+00 -2.0501789776690D-01  1.3826482566644D+00
   121  1.2000000000000D+00 -1.9814693194718D-01  1.3762429867886D+00
   122  1.2100000000000D+00 -1.9063682734837D-01  1.3687144496557D+00
   123  1.2200000000000D+00 -1.8257174908151D-01  1.3599831476708D+00
   124  1.2300000000000D+00 -1.7403801897975D-01  1.3499632993228D+00
   125  1.2400000000000D+00 -1.6512336559075D-01  1.3385647729994D+00
   126  1.2500000000000D+00 -1.5591613394351D-01  1.3256952009028D+00
   127  1.2600000000000D+00 -1.4650446433717D-01  1.3112622403745D+00
   128  1.2700000000000D+00 -1.3697545006241D-01  1.2951759472211D+00
   129  1.2800000000000D+00 -1.2741428527136D-01  1.2773512202762D+00
   130  1.2900000000000D+00 -1.1790341420101D-01  1.2577102764526D+00
   131  1.3000000000000D+00 -1.0852169354254D-01  1.2361851131462D+00
   132  1.3100000000000D+00 -9.9343580307973D-02  1.2127199125053D+00
   133  1.3200000000000D+00 -9.0438357141468D-02  1.1872733436886D+00
   134  1.3300000000000D+00 -8.1869407619336D-02  1.1598207168210D+00
   135  1.3400000000000D+00 -7.3693553254675D-02  1.1303559455501D+00
   136  1.3500000000000D+00 -6.5960463837568D-02  1.0988932754470D+00
   137  1.3600000000000D+00 -5.8712152698334D-02  1.0654687356464D+00
   138  1.3700000000000D+00 -5.1982566100873D-02  1.0301412803700D+00
   139  1.3800000000000D+00 -4.5797277579424D-02  9.9299358074000D-01
   140  1.3900000000000D+00 -4.0173294835879D-02  9.5413243972652D-01
   141  1.4000000000000D+00 -3.5118985635419D-02  9.1368880748632D-01
   142  1.4100000000000D+00 -3.0634130852484D-02  8.7181736794063D-01
   143  1.4200000000000D+00 -2.6710105492178D-02  8.2869569534370D-01
   144  1.4300000000000D+00 -2.3330193354339D-02  7.8452296112568D-01
   145  1.4400000000000D+00 -2.0470034622981D-02  7.3951819571315D-01
   146  1.4500000000000D+00 -1.8098203743745D-02  6.9391811669973D-01
   147  1.4600000000000D+00 -1.6176918833016D-02  6.4797452093633D-01
   148  1.4700000000000D+00 -1.4662870085777D-02  6.0195128839060D-01
   149  1.4800000000000D+00 -1.3508167362001D-02  5.5612099936798D-01
   150  1.4900000000000D+00 -1.2661389983644D-02  5.1076122904093D-01
   151  1.5000000000000D+00 -1.2068729777588D-02  4.6615055366602D-01
   152  1.5100000000000D+00 -1.1675212787243D-02  4.2256432413153D-01
   153  1.5200000000000D+00 -1.1425976299266D-02  3.8027029129064D-01
   154  1.5300000000000D+00 -1.1267591140977D-02  3.3952412370745D-01
   155  1.5400000000000D+00 -1.1149390784949D-02  3.0056495283531D-01
   156  1.5500000000000D+00 -1.1024799300180D-02  2.6361098029870D-01
   157  1.5600000000000D+00 -1.0852610248500D-02  2.2885531243131D-01
   158  1.5700000000000D+00 -1.0598201121930D-02  1.9646208185388D-01
   159  1.5800000000000D+00 -1.0234634994161D-02  1.6656302155648D-01
   160  1.5900000000000D+00 -9.7436199262234D-03  1.3925459601950D-01
   161  1.6000000000000D+00 -9.1162802794015D-03  1.1459584668916D-01
   162  1.6100000000000D+00 -8.3536942760750D-03  9.2607105007454D-02
   163  1.6200000000000D+00 -7.4671554419123D-03  7.3269720419831D-02
   164  1.6300000000000D+00 -6.4780943613510D-03  5.6527007287924D-02
   165  1.6400000000000D+00 -5.4176225506787D-03  4.2286547595080D-02
   166  1.6500000000000D+00 -4.3256152498373D-03  3.0424106054635D-02
   167  1.6600000000000D+00 -3.2504042903074D-03  2.0795166826122D-02
   168  1.6700000000000D+00 -2.2416675431592D-03  1.3215479371573D-02
   169  1.6800000000000D+00 -1.3497698844228D-03  7.4842621671951D-03
   170  1.6900000000000D+00 -6.4730696545927D-04  3.5165594478294D-03
   171  1.7000000000000D+00 -1.9254822894560D-04  1.2087216087937D-03
   172  1.7100000000000D+00  2.5219227474492D-05  1.7288842471574D-04
   173  1.7200000000000D+00  6.2010747527040D-05 -9.5572281447890D-05
   174  1.7300000000000D+00  1.5007894160182D-05 -3.1674392339036D-05
   175  1.7400000000000D+00 -1.3973260334228D-05  3.4133901905464D-05
   176  1.7500000000000D+00 -6.5694325416642D-06  1.6827218232744D-05
   177  1.7600000000000D+00  2.4254630620363D-06 -5.6814645784517D-06
   178  1.7700000000000D+00  1.6649394234374D-06 -4.0492175947745D-06
   179  1.7800000000000D+00 -1.0245429026656D-07 -1.3833740018156D-07
   180  1.7900000000000D+00 -9.8147679245948D-08 -1.3252246192338D-07
   181  1.8000000000000D+00  0.0000000000000D+00  0.0000000000000D+00
   182  1.8100000000000D+00  0.0000000000000D+00  0.0000000000000D+00
   183  1.8200000000000D+00  0.0000000000000D+00  0.0000000000000D+00
   184  1.8300000000000D+00  0.0000000000000D+00  0.0000000000000D+00
   185  1.8400000000000D+00  0.0000000000000D+00  0.0000000000000D+00
   186  1.8500000000000D+00  0.0000000000000D+00  0.0000000000000D+00
   187  1.8600000000000D+00  0.0000000000000D+00  0.0000000000000D+00
   188  1.8700000000000D+00  0.0000000000000D+00  0.0000000000000D+00
   189  1.8800000000000D+00  0.0000000000000D+00  0.0000000000000D+00
   190  1.8900000000000D+00  0.0000000000000D+00  0.0000000000000D+00
   191  1.9000000000000D+00  0.0000000000000D+00  0.0000000000000D+00
   192  1.9100000000000D+00  0.0000000000000D+00  0.0000000000000D+00
   193  1.9200000000000D+00  0.0000000000000D+00  0.0000000000000D+00
   194  1.9300000000000D+00  0.0000000000000D+00  0.0000000000000D+00
   195  1.9400000000000D+00  0.0000000000000D+00  0.0000000000000D+00
   196  1.9500000000000D+00  0.0000000000000D+00  0.0000000000000D+00
   197  1.9600000000000D+00  0.0000000000000D+00  0.0000000000000D+00
   198  1.9700000000000D+00  0.0000000000000D+00  0.0000000000000D+00
   199  1.9800000000000D+00  0.0000000000000D+00  0.0000000000000D+00
   200  1.9900000000000D+00  0.0000000000000D+00  0.0000000000000D+00
   201  2.0000000000000D+00  0.0000000000000D+00  0.0000000000000D+00
   202  2.0100000000000D+00  0.0000000000000D+00  0.0000000000000D+00
   203  2.0200000000000D+00  0.0000000000000D+00  0.0000000000000D+00
   204  2.0300000000000D+00  0.0000000000000D+00  0.0000000000000D+00
   205  2.0400000000000D+00  0.0000000000000D+00  0.0000000000000D+00
   206  2.0500000000000D+00  0.0000000000000D+00  0.0000000000000D+00
   207  2.0600000000000D+00  0.0000000000000D+00  0.0000000000000D+00
   208  2.0700000000000D+00  0.0000000000000D+00  0.0000000000000D+00
   209  2.0800000000000D+00  0.0000000000000D+00  0.0000000000000D+00
   210  2.0900000000000D+00  0.0000000000000D+00  0.0000000000000D+00
   211  2.1000000000000D+00  0.0000000000000D+00  0.0000000000000D+00
   212  2.1100000000000D+00  0.0000000000000D+00  0.0000000000000D+00
   213  2.1200000000000D+00  0.0000000000000D+00  0.0000000000000D+00
   214  2.1300000000000D+00  0.0000000000000D+00  0.0000000000000D+00
   215  2.1400000000000D+00  0.0000000000000D+00  0.0000000000000D+00
   216  2.1500000000000D+00  0.0000000000000D+00  0.0000000000000D+00
   217  2.1600000000000D+00  0.0000000000000D+00  0.0000000000000D+00
   218  2.1700000000000D+00  0.0000000000000D+00  0.0000000000000D+00
   219  2.1800000000000D+00  0.0000000000000D+00  0.0000000000000D+00
   220  2.1900000000000D+00  0.0000000000000D+00  0.0000000000000D+00
   221  2.2000000000000D+00  0.0000000000000D+00  0.0000000000000D+00
   222  2.2100000000000D+00  0.0000000000000D+00  0.0000000000000D+00
   223  2.2200000000000D+00  0.0000000000000D+00  0.0000000000000D+00
   224  2.2300000000000D+00  0.0000000000000D+00  0.0000000000000D+00
   225  2.2400000000000D+00  0.0000000000000D+00  0.0000000000000D+00
   226  2.2500000000000D+00  0.0000000000000D+00  0.0000000000000D+00
   227  2.2600000000000D+00  0.0000000000000D+00  0.0000000000000D+00
   228  2.2700000000000D+00  0.0000000000000D+00  0.0000000000000D+00
   229  2.2800000000000D+00  0.0000000000000D+00  0.0000000000000D+00
   230  2.2900000000000D+00  0.0000000000000D+00  0.0000000000000D+00
   231  2.3000000000000D+00  0.0000000000000D+00  0.0000000000000D+00
   232  2.3100000000000D+00  0.0000000000000D+00  0.0000000000000D+00
   233  2.3200000000000D+00  0.0000000000000D+00  0.0000000000000D+00
   234  2.3300000000000D+00  0.0000000000000D+00  0.0000000000000D+00
   235  2.3400000000000D+00  0.0000000000000D+00  0.0000000000000D+00
   236  2.3500000000000D+00  0.0000000000000D+00  0.0000000000000D+00
   237  2.3600000000000D+00  0.0000000000000D+00  0.0000000000000D+00
   238  2.3700000000000D+00  0.0000000000000D+00  0.0000000000000D+00
   239  2.3800000000000D+00  0.0000000000000D+00  0.0000000000000D+00
   240  2.3900000000000D+00  0.0000000000000D+00  0.0000000000000D+00
   241  2.4000000000000D+00  0.0000000000000D+00  0.0000000000000D+00
   242  2.4100000000000D+00  0.0000000000000D+00  0.0000000000000D+00
   243  2.4200000000000D+00  0.0000000000000D+00  0.0000000000000D+00
   244  2.4300000000000D+00  0.0000000000000D+00  0.0000000000000D+00
   245  2.4400000000000D+00  0.0000000000000D+00  0.0000000000000D+00
   246  2.4500000000000D+00  0.0000000000000D+00  0.0000000000000D+00
   247  2.4600000000000D+00  0.0000000000000D+00  0.0000000000000D+00
   248  2.4700000000000D+00  0.0000000000000D+00  0.0000000000000D+00
   249  2.4800000000000D+00  0.0000000000000D+00  0.0000000000000D+00
   250  2.4900000000000D+00  0.0000000000000D+00  0.0000000000000D+00
   251  2.5000000000000D+00  0.0000000000000D+00  0.0000000000000D+00
   252  2.5100000000000D+00  0.0000000000000D+00  0.0000000000000D+00
   253  2.5200000000000D+00  0.0000000000000D+00  0.0000000000000D+00
   254  2.5300000000000D+00  0.0000000000000D+00  0.0000000000000D+00
   255  2.5400000000000D+00  0.0000000000000D+00  0.0000000000000D+00
   256  2.5500000000000D+00  0.0000000000000D+00  0.0000000000000D+00
   257  2.5600000000000D+00  0.0000000000000D+00  0.0000000000000D+00
   258  2.5700000000000D+00  0.0000000000000D+00  0.0000000000000D+00
   259  2.5800000000000D+00  0.0000000000000D+00  0.0000000000000D+00
   260  2.5900000000000D+00  0.0000000000000D+00  0.0000000000000D+00
   261  2.6000000000000D+00  0.0000000000000D+00  0.0000000000000D+00
   262  2.6100000000000D+00  0.0000000000000D+00  0.0000000000000D+00
   263  2.6200000000000D+00  0.0000000000000D+00  0.0000000000000D+00
   264  2.6300000000000D+00  0.0000000000000D+00  0.0000000000000D+00
   265  2.6400000000000D+00  0.0000000000000D+00  0.0000000000000D+00
   266  2.6500000000000D+00  0.0000000000000D+00  0.0000000000000D+00
   267  2.6600000000000D+00  0.0000000000000D+00  0.0000000000000D+00
   268  2.6700000000000D+00  0.0000000000000D+00  0.0000000000000D+00
   269  2.6800000000000D+00  0.0000000000000D+00  0.0000000000000D+00
   270  2.6900000000000D+00  0.0000000000000D+00  0.0000000000000D+00
   271  2.7000000000000D+00  0.0000000000000D+00  0.0000000000000D+00
   272  2.7100000000000D+00  0.0000000000000D+00  0.0000000000000D+00
   273  2.7200000000000D+00  0.0000000000000D+00  0.0000000000000D+00
   274  2.7300000000000D+00  0.0000000000000D+00  0.0000000000000D+00
   275  2.7400000000000D+00  0.0000000000000D+00  0.0000000000000D+00
   276  2.7500000000000D+00  0.0000000000000D+00  0.0000000000000D+00
   277  2.7600000000000D+00  0.0000000000000D+00  0.0000000000000D+00
   278  2.7700000000000D+00  0.0000000000000D+00  0.0000000000000D+00
   279  2.7800000000000D+00  0.0000000000000D+00  0.0000000000000D+00
   280  2.7900000000000D+00  0.0000000000000D+00  0.0000000000000D+00
   281  2.8000000000000D+00  0.0000000000000D+00  0.0000000000000D+00
   282  2.8100000000000D+00  0.0000000000000D+00  0.0000000000000D+00
   283  2.8200000000000D+00  0.0000000000000D+00  0.0000000000000D+00
   284  2.8300000000000D+00  0.0000000000000D+00  0.0000000000000D+00
   285  2.8400000000000D+00  0.0000000000000D+00  0.0000000000000D+00
   286  2.8500000000000D+00  0.0000000000000D+00  0.0000000000000D+00
   287  2.8600000000000D+00  0.0000000000000D+00  0.0000000000000D+00
   288  2.8700000000000D+00  0.0000000000000D+00  0.0000000000000D+00
   289  2.8800000000000D+00  0.0000000000000D+00  0.0000000000000D+00
   290  2.8900000000000D+00  0.0000000000000D+00  0.0000000000000D+00
   291  2.9000000000000D+00  0.0000000000000D+00  0.0000000000000D+00
   292  2.9100000000000D+00  0.0000000000000D+00  0.0000000000000D+00
   293  2.9200000000000D+00  0.0000000000000D+00  0.0000000000000D+00
   294  2.9300000000000D+00  0.0000000000000D+00  0.0000000000000D+00
   295  2.9400000000000D+00  0.0000000000000D+00  0.0000000000000D+00
   296  2.9500000000000D+00  0.0000000000000D+00  0.0000000000000D+00
   297  2.9600000000000D+00  0.0000000000000D+00  0.0000000000000D+00
   298  2.9700000000000D+00  0.0000000000000D+00  0.0000000000000D+00
   299  2.9800000000000D+00  0.0000000000000D+00  0.0000000000000D+00
   300  2.9900000000000D+00  0.0000000000000D+00  0.0000000000000D+00
   301  3.0000000000000D+00  0.0000000000000D+00  0.0000000000000D+00
   302  3.0100000000000D+00  0.0000000000000D+00  0.0000000000000D+00
   303  3.0200000000000D+00  0.0000000000000D+00  0.0000000000000D+00
   304  3.0300000000000D+00  0.0000000000000D+00  0.0000000000000D+00
   305  3.0400000000000D+00  0.0000000000000D+00  0.0000000000000D+00
   306  3.0500000000000D+00  0.0000000000000D+00  0.0000000000000D+00
   307  3.0600000000000D+00  0.0000000000000D+00  0.0000000000000D+00
   308  3.0700000000000D+00  0.0000000000000D+00  0.0000000000000D+00
   309  3.0800000000000D+00  0.0000000000000D+00  0.0000000000000D+00
   310  3.0900000000000D+00  0.0000000000000D+00  0.0000000000000D+00
   311  3.1000000000000D+00  0.0000000000000D+00  0.0000000000000D+00
   312  3.1100000000000D+00  0.0000000000000D+00  0.0000000000000D+00
   313  3.1200000000000D+00  0.0000000000000D+00  0.0000000000000D+00
   314  3.1300000000000D+00  0.0000000000000D+00  0.0000000000000D+00
   315  3.1400000000000D+00  0.0000000000000D+00  0.0000000000000D+00
   316  3.1500000000000D+00  0.0000000000000D+00  0.0000000000000D+00
   317  3.1600000000000D+00  0.0000000000000D+00  0.0000000000000D+00
   318  3.1700000000000D+00  0.0000000000000D+00  0.0000000000000D+00
   319  3.1800000000000D+00  0.0000000000000D+00  0.0000000000000D+00
   320  3.1900000000000D+00  0.0000000000000D+00  0.0000000000000D+00
   321  3.2000000000000D+00  0.0000000000000D+00  0.0000000000000D+00
   322  3.2100000000000D+00  0.0000000000000D+00  0.0000000000000D+00
   323  3.2200000000000D+00  0.0000000000000D+00  0.0000000000000D+00
   324  3.2300000000000D+00  0.0000000000000D+00  0.0000000000000D+00
   325  3.2400000000000D+00  0.0000000000000D+00  0.0000000000000D+00
   326  3.2500000000000D+00  0.0000000000000D+00  0.0000000000000D+00
   327  3.2600000000000D+00  0.0000000000000D+00  0.0000000000000D+00
   328  3.2700000000000D+00  0.0000000000000D+00  0.0000000000000D+00
   329  3.2800000000000D+00  0.0000000000000D+00  0.0000000000000D+00
   330  3.2900000000000D+00  0.0000000000000D+00  0.0000000000000D+00
   331  3.3000000000000D+00  0.0000000000000D+00  0.0000000000000D+00
   332  3.3100000000000D+00  0.0000000000000D+00  0.0000000000000D+00
   333  3.3200000000000D+00  0.0000000000000D+00  0.0000000000000D+00
   334  3.3300000000000D+00  0.0000000000000D+00  0.0000000000000D+00
   335  3.3400000000000D+00  0.0000000000000D+00  0.0000000000000D+00
   336  3.3500000000000D+00  0.0000000000000D+00  0.0000000000000D+00
   337  3.3600000000000D+00  0.0000000000000D+00  0.0000000000000D+00
   338  3.3700000000000D+00  0.0000000000000D+00  0.0000000000000D+00
   339  3.3800000000000D+00  0.0000000000000D+00  0.0000000000000D+00
   340  3.3900000000000D+00  0.0000000000000D+00  0.0000000000000D+00
   341  3.4000000000000D+00  0.0000000000000D+00  0.0000000000000D+00
   342  3.4100000000000D+00  0.0000000000000D+00  0.0000000000000D+00
   343  3.4200000000000D+00  0.0000000000000D+00  0.0000000000000D+00
   344  3.4300000000000D+00  0.0000000000000D+00  0.0000000000000D+00
   345  3.4400000000000D+00  0.0000000000000D+00  0.0000000000000D+00
   346  3.4500000000000D+00  0.0000000000000D+00  0.0000000000000D+00
   347  3.4600000000000D+00  0.0000000000000D+00  0.0000000000000D+00
   348  3.4700000000000D+00  0.0000000000000D+00  0.0000000000000D+00
   349  3.4800000000000D+00  0.0000000000000D+00  0.0000000000000D+00
   350  3.4900000000000D+00  0.0000000000000D+00  0.0000000000000D+00
   351  3.5000000000000D+00  0.0000000000000D+00  0.0000000000000D+00
   352  3.5100000000000D+00  0.0000000000000D+00  0.0000000000000D+00
   353  3.5200000000000D+00  0.0000000000000D+00  0.0000000000000D+00
   354  3.5300000000000D+00  0.0000000000000D+00  0.0000000000000D+00
   355  3.5400000000000D+00  0.0000000000000D+00  0.0000000000000D+00
   356  3.5500000000000D+00  0.0000000000000D+00  0.0000000000000D+00
   357  3.5600000000000D+00  0.0000000000000D+00  0.0000000000000D+00
   358  3.5700000000000D+00  0.0000000000000D+00  0.0000000000000D+00
   359  3.5800000000000D+00  0.0000000000000D+00  0.0000000000000D+00
   360  3.5900000000000D+00  0.0000000000000D+00  0.0000000000000D+00
   361  3.6000000000000D+00  0.0000000000000D+00  0.0000000000000D+00
   362  3.6100000000000D+00  0.0000000000000D+00  0.0000000000000D+00
   363  3.6200000000000D+00  0.0000000000000D+00  0.0000000000000D+00
   364  3.6300000000000D+00  0.0000000000000D+00  0.0000000000000D+00
   365  3.6400000000000D+00  0.0000000000000D+00  0.0000000000000D+00
   366  3.6500000000000D+00  0.0000000000000D+00  0.0000000000000D+00
   367  3.6600000000000D+00  0.0000000000000D+00  0.0000000000000D+00
   368  3.6700000000000D+00  0.0000000000000D+00  0.0000000000000D+00
   369  3.6800000000000D+00  0.0000000000000D+00  0.0000000000000D+00
   370  3.6900000000000D+00  0.0000000000000D+00  0.0000000000000D+00
   371  3.7000000000000D+00  0.0000000000000D+00  0.0000000000000D+00
   372  3.7100000000000D+00  0.0000000000000D+00  0.0000000000000D+00
   373  3.7200000000000D+00  0.0000000000000D+00  0.0000000000000D+00
   374  3.7300000000000D+00  0.0000000000000D+00  0.0000000000000D+00
   375  3.7400000000000D+00  0.0000000000000D+00  0.0000000000000D+00
   376  3.7500000000000D+00  0.0000000000000D+00  0.0000000000000D+00
   377  3.7600000000000D+00  0.0000000000000D+00  0.0000000000000D+00
   378  3.7700000000000D+00  0.0000000000000D+00  0.0000000000000D+00
   379  3.7800000000000D+00  0.0000000000000D+00  0.0000000000000D+00
   380  3.7900000000000D+00  0.0000000000000D+00  0.0000000000000D+00
   381  3.8000000000000D+00  0.0000000000000D+00  0.0000000000000D+00
   382  3.8100000000000D+00  0.0000000000000D+00  0.0000000000000D+00
   383  3.8200000000000D+00  0.0000000000000D+00  0.0000000000000D+00
   384  3.8300000000000D+00  0.0000000000000D+00  0.0000000000000D+00
   385  3.8400000000000D+00  0.0000000000000D+00  0.0000000000000D+00
   386  3.8500000000000D+00  0.0000000000000D+00  0.0000000000000D+00
   387  3.8600000000000D+00  0.0000000000000D+00  0.0000000000000D+00
   388  3.8700000000000D+00  0.0000000000000D+00  0.0000000000000D+00
   389  3.8800000000000D+00  0.0000000000000D+00  0.0000000000000D+00
   390  3.8900000000000D+00  0.0000000000000D+00  0.0000000000000D+00
   391  3.9000000000000D+00  0.0000000000000D+00  0.0000000000000D+00
   392  3.9100000000000D+00  0.0000000000000D+00  0.0000000000000D+00
   393  3.9200000000000D+00  0.0000000000000D+00  0.0000000000000D+00
   394  3.9300000000000D+00  0.0000000000000D+00  0.0000000000000D+00
   395  3.9400000000000D+00  0.0000000000000D+00  0.0000000000000D+00
   396  3.9500000000000D+00  0.0000000000000D+00  0.0000000000000D+00
   397  3.9600000000000D+00  0.0000000000000D+00  0.0000000000000D+00
   398  3.9700000000000D+00  0.0000000000000D+00  0.0000000000000D+00
   399  3.9800000000000D+00  0.0000000000000D+00  0.0000000000000D+00
   400  3.9900000000000D+00  0.0000000000000D+00  0.0000000000000D+00
   401  4.0000000000000D+00  0.0000000000000D+00  0.0000000000000D+00
   402  4.0100000000000D+00  0.0000000000000D+00  0.0000000000000D+00
   403  4.0200000000000D+00  0.0000000000000D+00  0.0000000000000D+00
   404  4.0300000000000D+00  0.0000000000000D+00  0.0000000000000D+00
   405  4.0400000000000D+00  0.0000000000000D+00  0.0000000000000D+00
   406  4.0500000000000D+00  0.0000000000000D+00  0.0000000000000D+00
   407  4.0600000000000D+00  0.0000000000000D+00  0.0000000000000D+00
   408  4.0700000000000D+00  0.0000000000000D+00  0.0000000000000D+00
   409  4.0800000000000D+00  0.0000000000000D+00  0.0000000000000D+00
   410  4.0900000000000D+00  0.0000000000000D+00  0.0000000000000D+00
   411  4.1000000000000D+00  0.0000000000000D+00  0.0000000000000D+00
   412  4.1100000000000D+00  0.0000000000000D+00  0.0000000000000D+00
   413  4.1200000000000D+00  0.0000000000000D+00  0.0000000000000D+00
   414  4.1300000000000D+00  0.0000000000000D+00  0.0000000000000D+00
   415  4.1400000000000D+00  0.0000000000000D+00  0.0000000000000D+00
   416  4.1500000000000D+00  0.0000000000000D+00  0.0000000000000D+00
   417  4.1600000000000D+00  0.0000000000000D+00  0.0000000000000D+00
   418  4.1700000000000D+00  0.0000000000000D+00  0.0000000000000D+00
   419  4.1800000000000D+00  0.0000000000000D+00  0.0000000000000D+00
   420  4.1900000000000D+00  0.0000000000000D+00  0.0000000000000D+00
   421  4.2000000000000D+00  0.0000000000000D+00  0.0000000000000D+00
   422  4.2100000000000D+00  0.0000000000000D+00  0.0000000000000D+00