Pb    ONCVPSP-3.3.0  r_core=   2.42823   2.42823   2.10438
     82.0000     14.0000      220408    zatom,zion,pspd
     8       2   2     4   600     0    pspcod,pspxc,lmax,lloc,mmax,r2well
  5.99000000  0.00000000  0.00000000    rchrg fchrg qchrg
     2     2     2     0     0    nproj
     1     1           extension_switch
   0                         6.2595131551540D+00  1.2095347334057D+00
     1  0.0000000000000D+00  2.3487392586397D-12 -5.7638893657952D-12
     2  1.0000000000000D-02  5.1969612131484D-03  2.2264308175728D-02
     3  2.0000000000000D-02  1.0429427994054D-02  4.4456269034577D-02
     4  3.0000000000000D-02  1.5732791214659D-02  6.6503762826889D-02
     5  4.0000000000000D-02  2.1142212646788D-02  8.8335124307321D-02
     6  5.0000000000000D-02  2.6692511140280D-02  1.0987936841315D-01
     7  6.0000000000000D-02  3.2418049673322D-02  1.3106641405794D-01
     8  7.0000000000000D-02  3.8352623562981D-02  1.5182730541919D-01
     9  8.0000000000000D-02  4.4529350121610D-02  1.7209443010403D-01
    10  9.0000000000000D-02  5.0980560041891D-02  1.9180173358461D-01
    11  1.0000000000000D-01  5.7737690789760D-02  2.1088492930302D-01
    12  1.1000000000000D-01  6.4831182280415D-02  2.2928170385581D-01
    13  1.2000000000000D-01  7.2290375107923D-02  2.4693191667950D-01
    14  1.3000000000000D-01  8.0143411593767D-02  2.6377779367120D-01
    15  1.4000000000000D-01  8.8417139913808D-02  2.7976411419269D-01
    16  1.5000000000000D-01  9.7137021556862D-02  2.9483839092169D-01
    17  1.6000000000000D-01  1.0632704236110D-01  3.0895104203090D-01
    18  1.7000000000000D-01  1.1600962736705D-01  3.2205555519359D-01
    19  1.8000000000000D-01  1.2620555971787D-01  3.3410864293388D-01
    20  1.9000000000000D-01  1.3693390382916D-01  3.4507038886038D-01
    21  2.0000000000000D-01  1.4821193304126D-01  3.5490438434411D-01
    22  2.1000000000000D-01  1.6005506195742D-01  3.6357785522435D-01
    23  2.2000000000000D-01  1.7247678366119D-01  3.7106177815051D-01
    24  2.3000000000000D-01  1.8548861199556D-01  3.7733098619358D-01
    25  2.4000000000000D-01  1.9910002907522D-01  3.8236426338707D-01
    26  2.5000000000000D-01  2.1331843819181D-01  3.8614442788488D-01
    27  2.6000000000000D-01  2.2814912225974D-01  3.8865840345218D-01
    28  2.7000000000000D-01  2.4359520793774D-01  3.8989727903484D-01
    29  2.8000000000000D-01  2.5965763554821D-01  3.8985635618314D-01
    30  2.9000000000000D-01  2.7633513490302D-01  3.8853518413708D-01
    31  3.0000000000000D-01  2.9362420713066D-01  3.8593758241223D-01
    32  3.1000000000000D-01  3.1151911258544D-01  3.8207165075809D-01
    33  3.2000000000000D-01  3.3001186490477D-01  3.7694976639416D-01
    34  3.3000000000000D-01  3.4909223126595D-01  3.7058856846284D-01
    35  3.4000000000000D-01  3.6874773887835D-01  3.6300892967312D-01
    36  3.5000000000000D-01  3.8896368773193D-01  3.5423591514341D-01
    37  3.6000000000000D-01  4.0972316960682D-01  3.4429872848761D-01
    38  3.7000000000000D-01  4.3100709333323D-01  3.3323064522384D-01
    39  3.8000000000000D-01  4.5279421627473D-01  3.2106893362122D-01
    40  3.9000000000000D-01  4.7506118199167D-01  3.0785476313558D-01
    41  4.0000000000000D-01  4.9778256402534D-01  2.9363310062132D-01
    42  4.1000000000000D-01  5.2093091572711D-01  2.7845259454215D-01
    43  4.2000000000000D-01  5.4447682604023D-01  2.6236544743908D-01
    44  4.3000000000000D-01  5.6838898112581D-01  2.4542727694949D-01
    45  4.4000000000000D-01  5.9263423170803D-01  2.2769696570599D-01
    46  4.5000000000000D-01  6.1717766599750D-01  2.0923650047836D-01
    47  4.6000000000000D-01  6.4198268803564D-01  1.9011080095555D-01
    48  4.7000000000000D-01  6.6701110128701D-01  1.7038753859837D-01
    49  4.8000000000000D-01  6.9222319729086D-01  1.5013694602539D-01
    50  4.9000000000000D-01  7.1757784916812D-01  1.2943161742666D-01
    51  5.0000000000000D-01  7.4303260976452D-01  1.0834630052983D-01
    52  5.1000000000000D-01  7.6854381419658D-01  8.6957680673244D-02
    53  5.2000000000000D-01  7.9406668655231D-01  6.5344157568274D-02
    54  5.3000000000000D-01  8.1955545048540D-01  4.3585615360326D-02
    55  5.4000000000000D-01  8.4496344342807D-01  2.1763186623376D-02
    56  5.5000000000000D-01  8.7024323413541D-01 -4.0989053300952D-05
    57  5.6000000000000D-01  8.9534674326197D-01 -2.1744011205156D-02
    58  5.7000000000000D-01  9.2022536666003D-01 -4.3262468657496D-02
    59  5.8000000000000D-01  9.4483010107862D-01 -6.4512692995425D-02
    60  5.9000000000000D-01  9.6911167193232D-01 -8.5411014601375D-02
    61  6.0000000000000D-01  9.9302066280011D-01 -1.0587402050811D-01
    62  6.1000000000000D-01  1.0165076463062D+00 -1.2581881330250D-01
    63  6.2000000000000D-01  1.0395233160275D+00 -1.4516327030435D-01
    64  6.3000000000000D-01  1.0620186190671D+00 -1.6382630223681D-01
    65  6.4000000000000D-01  1.0839448889250D+00 -1.8172811059797D-01
    66  6.5000000000000D-01  1.1052539782978D+00 -1.9879044294019D-01
    67  6.6000000000000D-01  1.1258983914296D+00 -2.1493684526196D-01
    68  6.7000000000000D-01  1.1458314156408D+00 -2.3009291071821D-01
    69  6.8000000000000D-01  1.1650072516535D+00 -2.4418652385881D-01
    70  6.9000000000000D-01  1.1833811423396D+00 -2.5714809961063D-01
    71  7.0000000000000D-01  1.2009094995109D+00 -2.6891081622775D-01
    72  7.1000000000000D-01  1.2175500283798D+00 -2.7941084144492D-01
    73  7.2000000000000D-01  1.2332618493185D+00 -2.8858755108375D-01
    74  7.3000000000000D-01  1.2480056165490D+00 -2.9638373937699D-01
    75  7.4000000000000D-01  1.2617436334061D+00 -3.0274582029521D-01
    76  7.5000000000000D-01  1.2744399638170D+00 -3.0762401918163D-01
    77  7.6000000000000D-01  1.2860605396529D+00 -3.1097255402464D-01
    78  7.7000000000000D-01  1.2965732636170D+00 -3.1274980572384D-01
    79  7.8000000000000D-01  1.3059481073415D+00 -3.1291847673433D-01
    80  7.9000000000000D-01  1.3141572043803D+00 -3.1144573750463D-01
    81  8.0000000000000D-01  1.3211749377959D+00 -3.0830336015749D-01
    82  8.1000000000000D-01  1.3269780220512D+00 -3.0346783889793D-01
    83  8.2000000000000D-01  1.3315455789348D+00 -2.9692049667071D-01
    84  8.3000000000000D-01  1.3348592072612D+00 -2.8864757762907D-01
    85  8.4000000000000D-01  1.3369030461064D+00 -2.7864032501802D-01
    86  8.5000000000000D-01  1.3376638313555D+00 -2.6689504411904D-01
    87  8.6000000000000D-01  1.3371309453588D+00 -2.5341314994772D-01
    88  8.7000000000000D-01  1.3352964595115D+00 -2.3820119944290D-01
    89  8.8000000000000D-01  1.3321551695933D+00 -2.2127090793330D-01
    90  8.9000000000000D-01  1.3277046237237D+00 -2.0263914971722D-01
    91  9.0000000000000D-01  1.3219451428135D+00 -1.8232794264105D-01
    92  9.1000000000000D-01  1.3148798334104D+00 -1.6036441661342D-01
    93  9.2000000000000D-01  1.3065145928655D+00 -1.3678076604421D-01
    94  9.3000000000000D-01  1.2968581067652D+00 -1.1161418624962D-01
    95  9.4000000000000D-01  1.2859218386003D+00 -8.4906793918141D-02
    96  9.5000000000000D-01  1.2737200116668D+00 -5.6705531785042D-02
    97  9.6000000000000D-01  1.2602695832173D+00 -2.7062057716487D-02
    98  9.7000000000000D-01  1.2455902109054D+00  3.9673815425209D-03
    99  9.8000000000000D-01  1.2297042115921D+00  3.6322091649427D-02
   100  9.9000000000000D-01  1.2126365126054D+00  6.9937086615046D-02
   101  1.0000000000000D+00  1.1944145955695D+00  1.0474325901351D-01
   102  1.0100000000000D+00  1.1750684329445D+00  1.4066756399003D-01
   103  1.0200000000000D+00  1.1546304174400D+00  1.7763321655471D-01
   104  1.0300000000000D+00  1.1331352844922D+00  2.1555990160358D-01
   105  1.0400000000000D+00  1.1106200280132D+00  2.5436399606072D-01
   106  1.0500000000000D+00  1.0871238096474D+00  2.9395880248981D-01
   107  1.0600000000000D+00  1.0626878617895D+00  3.3425479348123D-01
   108  1.0700000000000D+00  1.0373553846398D+00  3.7515986607948D-01
   109  1.0800000000000D+00  1.0111714375952D+00  4.1657960547523D-01
   110  1.0900000000000D+00  9.8418282528955D-01  4.5841755715166D-01
   111  1.1000000000000D+00  9.5643797862107D-01  5.0057550663843D-01
   112  1.1100000000000D+00  9.2798683111581D-01  5.4295376599858D-01
   113  1.1200000000000D+00  8.9888069099791D-01  5.8545146614167D-01
   114  1.1300000000000D+00  8.6917210934971D-01  6.2796685403217D-01
   115  1.1400000000000D+00  8.3891474476010D-01  6.7039759383936D-01
   116  1.1500000000000D+00  8.0816322487103D-01  7.1264107105681D-01
   117  1.1600000000000D+00  7.7697300524420D-01  7.5459469860210D-01
   118  1.1700000000000D+00  7.4540022598061D-01  7.9615622389441D-01
   119  1.1800000000000D+00  7.1350156653342D-01  8.3722403589974D-01
   120  1.1900000000000D+00  6.8133409916074D-01  8.7769747112788D-01
   121  1.2000000000000D+00  6.4895514147261D-01  9.1747711756106D-01
   122  1.2100000000000D+00  6.1642210852923D-01  9.5646511549816D-01
   123  1.2200000000000D+00  5.8379236494933D-01  9.9456545430413D-01
   124  1.2300000000000D+00  5.5112307748989D-01  1.0316842640577D+00
   125  1.2400000000000D+00  5.1847106855706D-01  1.0677301011090D+00
   126  1.2500000000000D+00  4.8589267110349D-01  1.1026142265788D+00
   127  1.2600000000000D+00  4.5344358536887D-01  1.1362508768314D+00
   128  1.2700000000000D+00  4.2117873790948D-01  1.1685575249994D+00
   129  1.2800000000000D+00  3.8915214335391D-01  1.1994551326638D+00
   130  1.2900000000000D+00  3.5741676932448D-01  1.2288683907926D+00
   131  1.3000000000000D+00  3.2602440494000D-01  1.2567259491148D+00
   132  1.3100000000000D+00  2.9502553330575D-01  1.2829606331372D+00
   133  1.3200000000000D+00  2.6446920839980D-01  1.3075096480014D+00
   134  1.3300000000000D+00  2.3440293672422D-01  1.3303147685012D+00
   135  1.3400000000000D+00  2.0487256408784D-01  1.3513225145767D+00
   136  1.3500000000000D+00  1.7592216788206D-01  1.3704843116257D+00
   137  1.3600000000000D+00  1.4759395515686D-01  1.3877566351150D+00
   138  1.3700000000000D+00  1.1992816682236D-01  1.4031011389251D+00
   139  1.3800000000000D+00  9.2962988266385D-02  1.4164847669592D+00
   140  1.3900000000000D+00  6.6734466625469D-02  1.4278798476785D+00
   141  1.4000000000000D+00  4.1276434998550D-02  1.4372641710962D+00
   142  1.4100000000000D+00  1.6620443777808D-02  1.4446210480561D+00
   143  1.4200000000000D+00 -7.2043006911901D-03  1.4499393515193D+00
   144  1.4300000000000D+00 -3.0170989932873D-02  1.4532135396538D+00
   145  1.4400000000000D+00 -5.2255259562975D-02  1.4544436607630D+00
   146  1.4500000000000D+00 -7.3435227713265D-02  1.4536353398296D+00
   147  1.4600000000000D+00 -9.3691525648196D-02  1.4507997468899D+00
   148  1.4700000000000D+00 -1.1300732046559D-01  1.4459535472205D+00
   149  1.4800000000000D+00 -1.3136832985145D-01  1.4391188335109D+00
   150  1.4900000000000D+00 -1.4876282892917D-01  1.4303230403500D+00
   151  1.5000000000000D+00 -1.6518164913670D-01  1.4195988411153D+00
   152  1.5100000000000D+00 -1.8061816930066D-01  1.4069840278872D+00
   153  1.5200000000000D+00 -1.9506829885757D-01  1.3925213745188D+00
   154  1.5300000000000D+00 -2.0853045344038D-01  1.3762584835891D+00
   155  1.5400000000000D+00 -2.2100552288044D-01  1.3582476175961D+00
   156  1.5500000000000D+00 -2.3249683182283D-01  1.3385455150722D+00
   157  1.5600000000000D+00 -2.4301009314050D-01  1.3172131922709D+00
   158  1.5700000000000D+00 -2.5255335431100D-01  1.2943157310365D+00
   159  1.5800000000000D+00 -2.6113693707098D-01  1.2699220537766D+00
   160  1.5900000000000D+00 -2.6877337048385D-01  1.2441046860952D+00
   161  1.6000000000000D+00 -2.7547731784770D-01  1.2169395082262D+00
   162  1.6100000000000D+00 -2.8126549756783D-01  1.1885054958153D+00
   163  1.6200000000000D+00 -2.8615659849584D-01  1.1588844513219D+00
   164  1.6300000000000D+00 -2.9017118988761D-01  1.1281607266581D+00
   165  1.6400000000000D+00 -2.9333162650539D-01  1.0964209383626D+00
   166  1.6500000000000D+00 -2.9566194907701D-01  1.0637536760539D+00
   167  1.6600000000000D+00 -2.9718778063248D-01  1.0302492054281D+00
   168  1.6700000000000D+00 -2.9793621899326D-01  9.9599916667401D-01
   169  1.6800000000000D+00 -2.9793572592569D-01  9.6109626952511D-01
   170  1.6900000000000D+00 -2.9721601328450D-01  9.2563398592307D-01
   171  1.7000000000000D+00 -2.9580792664754D-01  8.8970624145917D-01
   172  1.7100000000000D+00 -2.9374332680895D-01  8.5340710665205D-01
   173  1.7200000000000D+00 -2.9105496961483D-01  8.1683048914988D-01
   174  1.7300000000000D+00 -2.8777638454679D-01  7.8006982800146D-01
   175  1.7400000000000D+00 -2.8394175250579D-01  7.4321779095840D-01
   176  1.7500000000000D+00 -2.7958578324578D-01  7.0636597606680D-01
   177  1.7600000000000D+00 -2.7474359285227D-01  6.6960461830822D-01
   178  1.7700000000000D+00 -2.6945058177823D-01  6.3302230272192D-01
   179  1.7800000000000D+00 -2.6374231373716D-01  5.9670568446132D-01
   180  1.7900000000000D+00 -2.5765439605266D-01  5.6073921745423D-01
   181  1.8000000000000D+00 -2.5122236164479D-01  5.2520489176733D-01
   182  1.8100000000000D+00 -2.4448155332579D-01  4.9018198151212D-01
   183  1.8200000000000D+00 -2.3746701049678D-01  4.5574680317200D-01
   184  1.8300000000000D+00 -2.3021335892189D-01  4.2197248612667D-01
   185  1.8400000000000D+00 -2.2275470365802D-01  3.8892875527139D-01
   186  1.8500000000000D+00 -2.1512452572274D-01  3.5668172716617D-01
   187  1.8600000000000D+00 -2.0735558266307D-01  3.2529371990329D-01
   188  1.8700000000000D+00 -1.9947981339211D-01  2.9482307746547D-01
   189  1.8800000000000D+00 -1.9152824766553D-01  2.6532400938068D-01
   190  1.8900000000000D+00 -1.8353092020757D-01  2.3684644542526D-01
   191  1.9000000000000D+00 -1.7551679019858D-01  2.0943590712260D-01
   192  1.9100000000000D+00 -1.6751366567005D-01  1.8313339452499D-01
   193  1.9200000000000D+00 -1.5954813384535D-01  1.5797529088617D-01
   194  1.9300000000000D+00 -1.5164549674546D-01  1.3399328313411D-01
   195  1.9400000000000D+00 -1.4382971293798D-01  1.1121430027407D-01
   196  1.9500000000000D+00 -1.3612334508231D-01  8.9660468567687D-02
   197  1.9600000000000D+00 -1.2854751353140D-01  6.9349083943068D-02
   198  1.9700000000000D+00 -1.2112185628745D-01  5.0292602193352D-02
   199  1.9800000000000D+00 -1.1386449475182D-01  3.2498645281582D-02
   200  1.9900000000000D+00 -1.0679200623681D-01  1.5970026022529D-02
   201  2.0000000000000D+00 -9.9919402172018D-02  7.0478818915627D-04
   202  2.0100000000000D+00 -9.3260112938384D-02 -1.3303735816390D-02
   203  2.0200000000000D+00 -8.6825978664737D-02 -2.6066851621263D-02
   204  2.0300000000000D+00 -8.0627246058788D-02 -3.7600413918993D-02
   205  2.0400000000000D+00 -7.4672570648608D-02 -4.7924724231249D-02
   206  2.0500000000000D+00 -6.8969029248493D-02 -5.7064400086057D-02
   207  2.0600000000000D+00 -6.3522124778249D-02 -6.5048271226785D-02
   208  2.0700000000000D+00 -5.8335822954011D-02 -7.1909183103595D-02
   209  2.0800000000000D+00 -5.3412572989976D-02 -7.7683850826948D-02
   210  2.0900000000000D+00 -4.8753331173464D-02 -8.2412705272884D-02
   211  2.1000000000000D+00 -4.4357536881609D-02 -8.6139901198911D-02
   212  2.1100000000000D+00 -4.0223282179559D-02 -8.8912719879393D-02
   213  2.1200000000000D+00 -3.6347400760614D-02 -9.0781221787314D-02
   214  2.1300000000000D+00 -3.2725590053821D-02 -9.1797824408094D-02
   215  2.1400000000000D+00 -2.9352523456484D-02 -9.2016930121928D-02
   216  2.1500000000000D+00 -2.6222051999790D-02 -9.1494274962062D-02
   217  2.1600000000000D+00 -2.3327208403327D-02 -9.0286896277365D-02
   218  2.1700000000000D+00 -2.0660287059131D-02 -8.8452876726169D-02
   219  2.1800000000000D+00 -1.8212917971539D-02 -8.6051105502310D-02
   220  2.1900000000000D+00 -1.5976164609068D-02 -8.3140961288409D-02
   221  2.2000000000000D+00 -1.3940595352841D-02 -7.9782085904763D-02
   222  2.2100000000000D+00 -1.2096369011200D-02 -7.6034113905383D-02
   223  2.2200000000000D+00 -1.0433316324253D-02 -7.1956416919009D-02
   224  2.2300000000000D+00 -8.9410213173961D-03 -6.7607850094846D-02
   225  2.2400000000000D+00 -7.6089017586293D-03 -6.3046502786060D-02
   226  2.2500000000000D+00 -6.4262886956745D-03 -5.8329453469148D-02
   227  2.2600000000000D+00 -5.3825041963178D-03 -5.3512531328153D-02
   228  2.2700000000000D+00 -4.4669370877106D-03 -4.8650084999820D-02
   229  2.2800000000000D+00 -3.6691169228673D-03 -4.3794757815215D-02
   230  2.2900000000000D+00 -2.9787846588281D-03 -3.8997273630906D-02
   231  2.3000000000000D+00 -2.3859608569222D-03 -3.4306231015174D-02
   232  2.3100000000000D+00 -1.8810108428504D-03 -2.9767907289632D-02
   233  2.3200000000000D+00 -1.4547056762056D-03 -2.5426075470116D-02
   234  2.3300000000000D+00 -1.0982801089080D-03 -2.1321830954676D-02
   235  2.3400000000000D+00 -8.0348620551046D-04 -1.7493431460398D-02
   236  2.3500000000000D+00 -5.6255960719751D-04 -1.3979292340487D-02
   237  2.3600000000000D+00 -3.6855829211945D-04 -1.0806708201786D-02
   238  2.3700000000000D+00 -2.1515945977369D-04 -8.0009660969540D-03
   239  2.3800000000000D+00 -9.7659655185591D-05 -5.5729007723779D-03
   240  2.3900000000000D+00 -8.8350427969958D-06 -3.5835592304535D-03
   241  2.4000000000000D+00  5.6696598460855D-05 -2.0711968983347D-03
   242  2.4100000000000D+00  1.0533881518605D-04 -1.0620923332677D-03
   243  2.4200000000000D+00  1.2844519826654D-04 -4.5562590622733D-04
   244  2.4300000000000D+00  1.2097494684970D-04 -1.4599345303573D-04
   245  2.4400000000000D+00  8.0326760418039D-05 -1.4672035245393D-05
   246  2.4500000000000D+00  3.1091070680899D-05  1.0369405075520D-05
   247  2.4600000000000D+00 -5.6221913378247D-06 -3.0090946659634D-06
   248  2.4700000000000D+00 -1.4400149206988D-05 -1.0979274544992D-05
   249  2.4800000000000D+00 -8.0728587226710D-06 -7.4561016464417D-06
   250  2.4900000000000D+00  1.2675766152974D-06  3.1296428493999D-07
   251  2.5000000000000D+00  3.2097598436373D-06  1.0615802367863D-06
   252  2.5100000000000D+00  1.9115812163059D-06  7.6399136839677D-07
   253  2.5200000000000D+00 -1.3826926076137D-07  2.0474487339304D-07
   254  2.5300000000000D+00 -3.5494701784071D-07  5.2559463924854D-07
   255  2.5400000000000D+00 -2.2271924047234D-07  3.2979580885590D-07
   256  2.5500000000000D+00  0.0000000000000D+00  0.0000000000000D+00
   257  2.5600000000000D+00  0.0000000000000D+00  0.0000000000000D+00
   258  2.5700000000000D+00  0.0000000000000D+00  0.0000000000000D+00
   259  2.5800000000000D+00  0.0000000000000D+00  0.0000000000000D+00
   260  2.5900000000000D+00  0.0000000000000D+00  0.0000000000000D+00
   261  2.6000000000000D+00  0.0000000000000D+00  0.0000000000000D+00
   262  2.6100000000000D+00  0.0000000000000D+00  0.0000000000000D+00
   263  2.6200000000000D+00  0.0000000000000D+00  0.0000000000000D+00
   264  2.6300000000000D+00  0.0000000000000D+00  0.0000000000000D+00
   265  2.6400000000000D+00  0.0000000000000D+00  0.0000000000000D+00
   266  2.6500000000000D+00  0.0000000000000D+00  0.0000000000000D+00
   267  2.6600000000000D+00  0.0000000000000D+00  0.0000000000000D+00
   268  2.6700000000000D+00  0.0000000000000D+00  0.0000000000000D+00
   269  2.6800000000000D+00  0.0000000000000D+00  0.0000000000000D+00
   270  2.6900000000000D+00  0.0000000000000D+00  0.0000000000000D+00
   271  2.7000000000000D+00  0.0000000000000D+00  0.0000000000000D+00
   272  2.7100000000000D+00  0.0000000000000D+00  0.0000000000000D+00
   273  2.7200000000000D+00  0.0000000000000D+00  0.0000000000000D+00
   274  2.7300000000000D+00  0.0000000000000D+00  0.0000000000000D+00
   275  2.7400000000000D+00  0.0000000000000D+00  0.0000000000000D+00
   276  2.7500000000000D+00  0.0000000000000D+00  0.0000000000000D+00
   277  2.7600000000000D+00  0.0000000000000D+00  0.0000000000000D+00
   278  2.7700000000000D+00  0.0000000000000D+00  0.0000000000000D+00
   279  2.7800000000000D+00  0.0000000000000D+00  0.0000000000000D+00
   280  2.7900000000000D+00  0.0000000000000D+00  0.0000000000000D+00
   281  2.8000000000000D+00  0.0000000000000D+00  0.0000000000000D+00
   282  2.8100000000000D+00  0.0000000000000D+00  0.0000000000000D+00
   283  2.8200000000000D+00  0.0000000000000D+00  0.0000000000000D+00
   284  2.8300000000000D+00  0.0000000000000D+00  0.0000000000000D+00
   285  2.8400000000000D+00  0.0000000000000D+00  0.0000000000000D+00
   286  2.8500000000000D+00  0.0000000000000D+00  0.0000000000000D+00
   287  2.8600000000000D+00  0.0000000000000D+00  0.0000000000000D+00
   288  2.8700000000000D+00  0.0000000000000D+00  0.0000000000000D+00
   289  2.8800000000000D+00  0.0000000000000D+00  0.0000000000000D+00
   290  2.8900000000000D+00  0.0000000000000D+00  0.0000000000000D+00
   291  2.9000000000000D+00  0.0000000000000D+00  0.0000000000000D+00
   292  2.9100000000000D+00  0.0000000000000D+00  0.0000000000000D+00
   293  2.9200000000000D+00  0.0000000000000D+00  0.0000000000000D+00
   294  2.9300000000000D+00  0.0000000000000D+00  0.0000000000000D+00
   295  2.9400000000000D+00  0.0000000000000D+00  0.0000000000000D+00
   296  2.9500000000000D+00  0.0000000000000D+00  0.0000000000000D+00
   297  2.9600000000000D+00  0.0000000000000D+00  0.0000000000000D+00
   298  2.9700000000000D+00  0.0000000000000D+00  0.0000000000000D+00
   299  2.9800000000000D+00  0.0000000000000D+00  0.0000000000000D+00
   300  2.9900000000000D+00  0.0000000000000D+00  0.0000000000000D+00
   301  3.0000000000000D+00  0.0000000000000D+00  0.0000000000000D+00
   302  3.0100000000000D+00  0.0000000000000D+00  0.0000000000000D+00
   303  3.0200000000000D+00  0.0000000000000D+00  0.0000000000000D+00
   304  3.0300000000000D+00  0.0000000000000D+00  0.0000000000000D+00
   305  3.0400000000000D+00  0.0000000000000D+00  0.0000000000000D+00
   306  3.0500000000000D+00  0.0000000000000D+00  0.0000000000000D+00
   307  3.0600000000000D+00  0.0000000000000D+00  0.0000000000000D+00
   308  3.0700000000000D+00  0.0000000000000D+00  0.0000000000000D+00
   309  3.0800000000000D+00  0.0000000000000D+00  0.0000000000000D+00
   310  3.0900000000000D+00  0.0000000000000D+00  0.0000000000000D+00
   311  3.1000000000000D+00  0.0000000000000D+00  0.0000000000000D+00
   312  3.1100000000000D+00  0.0000000000000D+00  0.0000000000000D+00
   313  3.1200000000000D+00  0.0000000000000D+00  0.0000000000000D+00
   314  3.1300000000000D+00  0.0000000000000D+00  0.0000000000000D+00
   315  3.1400000000000D+00  0.0000000000000D+00  0.0000000000000D+00
   316  3.1500000000000D+00  0.0000000000000D+00  0.0000000000000D+00
   317  3.1600000000000D+00  0.0000000000000D+00  0.0000000000000D+00
   318  3.1700000000000D+00  0.0000000000000D+00  0.0000000000000D+00
   319  3.1800000000000D+00  0.0000000000000D+00  0.0000000000000D+00
   320  3.1900000000000D+00  0.0000000000000D+00  0.0000000000000D+00
   321  3.2000000000000D+00  0.0000000000000D+00  0.0000000000000D+00
   322  3.2100000000000D+00  0.0000000000000D+00  0.0000000000000D+00
   323  3.2200000000000D+00  0.0000000000000D+00  0.0000000000000D+00
   324  3.2300000000000D+00  0.0000000000000D+00  0.0000000000000D+00
   325  3.2400000000000D+00  0.0000000000000D+00  0.0000000000000D+00
   326  3.2500000000000D+00  0.0000000000000D+00  0.0000000000000D+00
   327  3.2600000000000D+00  0.0000000000000D+00  0.0000000000000D+00
   328  3.2700000000000D+00  0.0000000000000D+00  0.0000000000000D+00
   329  3.2800000000000D+00  0.0000000000000D+00  0.0000000000000D+00
   330  3.2900000000000D+00  0.0000000000000D+00  0.0000000000000D+00
   331  3.3000000000000D+00  0.0000000000000D+00  0.0000000000000D+00
   332  3.3100000000000D+00  0.0000000000000D+00  0.0000000000000D+00
   333  3.3200000000000D+00  0.0000000000000D+00  0.0000000000000D+00
   334  3.3300000000000D+00  0.0000000000000D+00  0.0000000000000D+00
   335  3.3400000000000D+00  0.0000000000000D+00  0.0000000000000D+00
   336  3.3500000000000D+00  0.0000000000000D+00  0.0000000000000D+00
   337  3.3600000000000D+00  0.0000000000000D+00  0.0000000000000D+00
   338  3.3700000000000D+00  0.0000000000000D+00  0.0000000000000D+00
   339  3.3800000000000D+00  0.0000000000000D+00  0.0000000000000D+00
   340  3.3900000000000D+00  0.0000000000000D+00  0.0000000000000D+00
   341  3.4000000000000D+00  0.0000000000000D+00  0.0000000000000D+00
   342  3.4100000000000D+00  0.0000000000000D+00  0.0000000000000D+00
   343  3.4200000000000D+00  0.0000000000000D+00  0.0000000000000D+00
   344  3.4300000000000D+00  0.0000000000000D+00  0.0000000000000D+00
   345  3.4400000000000D+00  0.0000000000000D+00  0.0000000000000D+00
   346  3.4500000000000D+00  0.0000000000000D+00  0.0000000000000D+00
   347  3.4600000000000D+00  0.0000000000000D+00  0.0000000000000D+00
   348  3.4700000000000D+00  0.0000000000000D+00  0.0000000000000D+00
   349  3.4800000000000D+00  0.0000000000000D+00  0.0000000000000D+00
   350  3.4900000000000D+00  0.0000000000000D+00  0.0000000000000D+00
   351  3.5000000000000D+00  0.0000000000000D+00  0.0000000000000D+00
   352  3.5100000000000D+00  0.0000000000000D+00  0.0000000000000D+00
   353  3.5200000000000D+00  0.0000000000000D+00  0.0000000000000D+00
   354  3.5300000000000D+00  0.0000000000000D+00  0.0000000000000D+00
   355  3.5400000000000D+00  0.0000000000000D+00  0.0000000000000D+00
   356  3.5500000000000D+00  0.0000000000000D+00  0.0000000000000D+00
   357  3.5600000000000D+00  0.0000000000000D+00  0.0000000000000D+00
   358  3.5700000000000D+00  0.0000000000000D+00  0.0000000000000D+00
   359  3.5800000000000D+00  0.0000000000000D+00  0.0000000000000D+00
   360  3.5900000000000D+00  0.0000000000000D+00  0.0000000000000D+00
   361  3.6000000000000D+00  0.0000000000000D+00  0.0000000000000D+00
   362  3.6100000000000D+00  0.0000000000000D+00  0.0000000000000D+00
   363  3.6200000000000D+00  0.0000000000000D+00  0.0000000000000D+00
   364  3.6300000000000D+00  0.0000000000000D+00  0.0000000000000D+00
   365  3.6400000000000D+00  0.0000000000000D+00  0.0000000000000D+00
   366  3.6500000000000D+00  0.0000000000000D+00  0.0000000000000D+00
   367  3.6600000000000D+00  0.0000000000000D+00  0.0000000000000D+00
   368  3.6700000000000D+00  0.0000000000000D+00  0.0000000000000D+00
   369  3.6800000000000D+00  0.0000000000000D+00  0.0000000000000D+00
   370  3.6900000000000D+00  0.0000000000000D+00  0.0000000000000D+00
   371  3.7000000000000D+00  0.0000000000000D+00  0.0000000000000D+00
   372  3.7100000000000D+00  0.0000000000000D+00  0.0000000000000D+00
   373  3.7200000000000D+00  0.0000000000000D+00  0.0000000000000D+00
   374  3.7300000000000D+00  0.0000000000000D+00  0.0000000000000D+00
   375  3.7400000000000D+00  0.0000000000000D+00  0.0000000000000D+00
   376  3.7500000000000D+00  0.0000000000000D+00  0.0000000000000D+00
   377  3.7600000000000D+00  0.0000000000000D+00  0.0000000000000D+00
   378  3.7700000000000D+00  0.0000000000000D+00  0.0000000000000D+00
   379  3.7800000000000D+00  0.0000000000000D+00  0.0000000000000D+00
   380  3.7900000000000D+00  0.0000000000000D+00  0.0000000000000D+00
   381  3.8000000000000D+00  0.0000000000000D+00  0.0000000000000D+00
   382  3.8100000000000D+00  0.0000000000000D+00  0.0000000000000D+00
   383  3.8200000000000D+00  0.0000000000000D+00  0.0000000000000D+00
   384  3.8300000000000D+00  0.0000000000000D+00  0.0000000000000D+00
   385  3.8400000000000D+00  0.0000000000000D+00  0.0000000000000D+00
   386  3.8500000000000D+00  0.0000000000000D+00  0.0000000000000D+00
   387  3.8600000000000D+00  0.0000000000000D+00  0.0000000000000D+00
   388  3.8700000000000D+00  0.0000000000000D+00  0.0000000000000D+00
   389  3.8800000000000D+00  0.0000000000000D+00  0.0000000000000D+00
   390  3.8900000000000D+00  0.0000000000000D+00  0.0000000000000D+00
   391  3.9000000000000D+00  0.0000000000000D+00  0.0000000000000D+00
   392  3.9100000000000D+00  0.0000000000000D+00  0.0000000000000D+00
   393  3.9200000000000D+00  0.0000000000000D+00  0.0000000000000D+00
   394  3.9300000000000D+00  0.0000000000000D+00  0.0000000000000D+00
   395  3.9400000000000D+00  0.0000000000000D+00  0.0000000000000D+00
   396  3.9500000000000D+00  0.0000000000000D+00  0.0000000000000D+00
   397  3.9600000000000D+00  0.0000000000000D+00  0.0000000000000D+00
   398  3.9700000000000D+00  0.0000000000000D+00  0.0000000000000D+00
   399  3.9800000000000D+00  0.0000000000000D+00  0.0000000000000D+00
   400  3.9900000000000D+00  0.0000000000000D+00  0.0000000000000D+00
   401  4.0000000000000D+00  0.0000000000000D+00  0.0000000000000D+00
   402  4.0100000000000D+00  0.0000000000000D+00  0.0000000000000D+00
   403  4.0200000000000D+00  0.0000000000000D+00  0.0000000000000D+00
   404  4.0300000000000D+00  0.0000000000000D+00  0.0000000000000D+00
   405  4.0400000000000D+00  0.0000000000000D+00  0.0000000000000D+00
   406  4.0500000000000D+00  0.0000000000000D+00  0.0000000000000D+00
   407  4.0600000000000D+00  0.0000000000000D+00  0.0000000000000D+00
   408  4.0700000000000D+00  0.0000000000000D+00  0.0000000000000D+00
   409  4.0800000000000D+00  0.0000000000000D+00  0.0000000000000D+00
   410  4.0900000000000D+00  0.0000000000000D+00  0.0000000000000D+00
   411  4.1000000000000D+00  0.0000000000000D+00  0.0000000000000D+00
   412  4.1100000000000D+00  0.0000000000000D+00  0.0000000000000D+00
   413  4.1200000000000D+00  0.0000000000000D+00  0.0000000000000D+00
   414  4.1300000000000D+00  0.0000000000000D+00  0.0000000000000D+00
   415  4.1400000000000D+00  0.0000000000000D+00  0.0000000000000D+00
   416  4.1500000000000D+00  0.0000000000000D+00  0.0000000000000D+00
   417  4.1600000000000D+00  0.0000000000000D+00  0.0000000000000D+00
   418  4.1700000000000D+00  0.0000000000000D+00  0.0000000000000D+00
   419  4.1800000000000D+00  0.0000000000000D+00  0.0000000000000D+00
   420  4.1900000000000D+00  0.0000000000000D+00  0.0000000000000D+00
   421  4.2000000000000D+00  0.0000000000000D+00  0.0000000000000D+00
   422  4.2100000000000D+00  0.0000000000000D+00  0.0000000000000D+00