Pb    ONCVPSP-3.3.0  r_core=   1.40277   1.50685   1.40277
     82.0000     22.0000      220408    zatom,zion,pspd
     8       2   2     4   600     0    pspcod,pspxc,lmax,lloc,mmax,r2well
  5.99000000  0.00000000  0.00000000    rchrg fchrg qchrg
     2     2     2     0     0    nproj
     1     1           extension_switch
   0                         1.6852196236819D+01  2.1631754366999D+00
     1  0.0000000000000D+00 -7.3902794994751D-10  2.1018776719117D-09
     2  1.0000000000000D-02  8.3693476711078D-02 -2.5668810899251D-02
     3  2.0000000000000D-02  1.6715398180281D-01 -5.1082401184157D-02
     4  3.0000000000000D-02  2.5014968931741D-01 -7.5988024278262D-02
     5  4.0000000000000D-02  3.3245105219811D-01 -1.0013784685238D-01
     6  5.0000000000000D-02  4.1383191087665D-01 -1.2329131892299D-01
     7  6.0000000000000D-02  4.9407056536016D-01 -1.4521744164076D-01
     8  7.0000000000000D-02  5.7295079953342D-01 -1.6569690117559D-01
     9  8.0000000000000D-02  6.5026284713152D-01 -1.8452403920588D-01
    10  9.0000000000000D-02  7.2580428973979D-01 -2.0150863308730D-01
    11  1.0000000000000D-01  7.9938087822864D-01 -2.1647746176801D-01
    12  1.1000000000000D-01  8.7080727021402D-01 -2.2927563689077D-01
    13  1.2000000000000D-01  9.3990767743096D-01 -2.3976768222280D-01
    14  1.3000000000000D-01  1.0065164182977D+00 -2.4783834852702D-01
    15  1.4000000000000D-01  1.0704783724094D+00 -2.5339315517107D-01
    16  1.5000000000000D-01  1.1316493352087D+00 -2.5635865409841D-01
    17  1.6000000000000D-01  1.1898962726156D+00 -2.5668241619157D-01
    18  1.7000000000000D-01  1.2450974769278D+00 -2.5433274447279D-01
    19  1.8000000000000D-01  1.2971426268120D+00 -2.4929812294029D-01
    20  1.9000000000000D-01  1.3459327556606D+00 -2.4158641406275D-01
    21  2.0000000000000D-01  1.3913801339692D+00 -2.3122382197973D-01
    22  2.1000000000000D-01  1.4334080726739D+00 -2.1825364221794D-01
    23  2.2000000000000D-01  1.4719506555511D+00 -2.0273482217055D-01
    24  2.3000000000000D-01  1.5069524098062D+00 -1.8474035964086D-01
    25  2.4000000000000D-01  1.5383679248423D+00 -1.6435556937133D-01
    26  2.5000000000000D-01  1.5661614298952D+00 -1.4167624961823D-01
    27  2.6000000000000D-01  1.5903063417218D+00 -1.1680678245177D-01
    28  2.7000000000000D-01  1.6107847938429D+00 -8.9858202531049D-02
    29  2.8000000000000D-01  1.6275871589377D+00 -6.0946269598390D-02
    30  2.9000000000000D-01  1.6407115758891D+00 -3.0189579846314D-02
    31  3.0000000000000D-01  1.6501634926582D+00  2.2922493751309D-03
    32  3.1000000000000D-01  1.6559552356479D+00  3.6380288316007D-02
    33  3.2000000000000D-01  1.6581056154914D+00  7.1957865703569D-02
    34  3.3000000000000D-01  1.6566395782867D+00  1.0891197279448D-01
    35  3.4000000000000D-01  1.6515879102062D+00  1.4713447457926D-01
    36  3.5000000000000D-01  1.6429870021533D+00  1.8652310551834D-01
    37  3.6000000000000D-01  1.6308786797375D+00  2.2698223102076D-01
    38  3.7000000000000D-01  1.6153101023188D+00  2.6842336008348D-01
    39  3.8000000000000D-01  1.5963337332470D+00  3.1076539902636D-01
    40  3.9000000000000D-01  1.5740073817334D+00  3.5393464101522D-01
    41  4.0000000000000D-01  1.5483943150496D+00  3.9786449098975D-01
    42  4.1000000000000D-01  1.5195634379977D+00  4.4249493062339D-01
    43  4.2000000000000D-01  1.4875895348596D+00  4.8777173295887D-01
    44  4.3000000000000D-01  1.4525535673373D+00  5.3364544130116D-01
    45  4.4000000000000D-01  1.4145430203848D+00  5.8007013172651D-01
    46  4.5000000000000D-01  1.3736522863180D+00  6.2700198309789D-01
    47  4.6000000000000D-01  1.3299830762210D+00  6.7439768268498D-01
    48  4.7000000000000D-01  1.2836448464484D+00  7.2221269929178D-01
    49  4.8000000000000D-01  1.2347552270083D+00  7.7039945912746D-01
    50  4.9000000000000D-01  1.1834404377919D+00  8.1890546244789D-01
    51  5.0000000000000D-01  1.1298356780412D+00  8.6767138119092D-01
    52  5.1000000000000D-01  1.0740854741105D+00  9.1662917937443D-01
    53  5.2000000000000D-01  1.0163439705090D+00  9.6570029888681D-01
    54  5.3000000000000D-01  9.5677514941153D-01  1.0147939534387D+00
    55  5.4000000000000D-01  8.9555296429854D-01  1.0638055728494D+00
    56  5.5000000000000D-01  8.3286137414111D-01  1.1126154384994D+00
    57  5.6000000000000D-01  7.6889426556802D-01  1.1610875486974D+00
    58  5.7000000000000D-01  7.0385525173892D-01  1.2090687499080D+00
    59  5.8000000000000D-01  6.3795733818940D-01  1.2563881662757D+00
    60  5.9000000000000D-01  5.7142244767672D-01  1.3028569557421D+00
    61  6.0000000000000D-01  5.0448079804598D-01  1.3482684162703D+00
    62  6.1000000000000D-01  4.3737012929136D-01  1.3923984604243D+00
    63  6.2000000000000D-01  3.7033477831880D-01  1.4350064707597D+00
    64  6.3000000000000D-01  3.0362460235179D-01  1.4758365423598D+00
    65  6.4000000000000D-01  2.3749375445224D-01  1.5146191124120D+00
    66  6.5000000000000D-01  1.7219931720996D-01  1.5510729700758D+00
    67  6.6000000000000D-01  1.0799980322789D-01  1.5849076332063D+00
    68  6.7000000000000D-01  4.5153533585904D-02  1.6158260717731D+00
    69  6.8000000000000D-01 -1.6083092063325D-02  1.6435277512521D+00
    70  6.9000000000000D-01 -7.5457417761368D-02  1.6677119629351D+00
    71  7.0000000000000D-01 -1.3272242767959D-01  1.6880814021238D+00
    72  7.1000000000000D-01 -1.8763869652868D-01  1.7043459496223D+00
    73  7.2000000000000D-01 -2.3997637200080D-01  1.7162266069821D+00
    74  7.3000000000000D-01 -2.8951716581865D-01  1.7234595316095D+00
    75  7.4000000000000D-01 -3.3605632879229D-01  1.7258001142616D+00
    76  7.5000000000000D-01 -3.7940458443939D-01  1.7230270386637D+00
    77  7.6000000000000D-01 -4.1938999523801D-01  1.7149462610733D+00
    78  7.7000000000000D-01 -4.5585973546825D-01  1.7013948466434D+00
    79  7.8000000000000D-01 -4.8868174487154D-01  1.6822445994208D+00
    80  7.9000000000000D-01 -5.1774623802318D-01  1.6574054238008D+00
    81  8.0000000000000D-01 -5.4296704537434D-01  1.6268283572371D+00
    82  8.1000000000000D-01 -5.6428276336918D-01  1.5905082169860D+00
    83  8.2000000000000D-01 -5.8165769286976D-01  1.5484858076079D+00
    84  8.3000000000000D-01 -5.9508254730711D-01  1.5008496408279D+00
    85  8.4000000000000D-01 -6.0457491449955D-01  1.4477371251142D+00
    86  8.5000000000000D-01 -6.1017945890449D-01  1.3893351888898D+00
    87  8.6000000000000D-01 -6.1196785416900D-01  1.3258803085793D+00
    88  8.7000000000000D-01 -6.1003843917545D-01  1.2576579206102D+00
    89  8.8000000000000D-01 -6.0451559428549D-01  1.1850012048913D+00
    90  8.9000000000000D-01 -5.9554883814189D-01  1.1082892361293D+00
    91  9.0000000000000D-01 -5.8331164912110D-01  1.0279445084189D+00
    92  9.1000000000000D-01 -5.6800001929544D-01  9.4442984776000D-01
    93  9.2000000000000D-01 -5.4983075250533D-01  8.5824473636230D-01
    94  9.3000000000000D-01 -5.2903952180077D-01  7.6992108164912D-01
    95  9.4000000000000D-01 -5.0587870503249D-01  6.8001847163252D-01
    96  9.5000000000000D-01 -4.8061502069955D-01  5.8911896665202D-01
    97  9.6000000000000D-01 -4.5352698923955D-01  4.9782148521748D-01
    98  9.7000000000000D-01 -4.2490224772834D-01  4.0673584874076D-01
    99  9.8000000000000D-01 -3.9503474839019D-01  3.1647655615674D-01
   100  9.9000000000000D-01 -3.6422187337393D-01  2.2765636473836D-01
   101  1.0000000000000D+00 -3.3276149984928D-01  1.4087975760120D-01
   102  1.0100000000000D+00 -3.0094905066488D-01  5.6736381583391D-02
   103  1.0200000000000D+00 -2.6907456648629D-01 -2.4205458870870D-02
   104  1.0300000000000D+00 -2.3741983550072D-01 -1.0140516551736D-01
   105  1.0400000000000D+00 -2.0625561646046D-01 -1.7435598200961D-01
   106  1.0500000000000D+00 -1.7583898995628D-01 -2.4259081760251D-01
   107  1.0600000000000D+00 -1.4641087147814D-01 -3.0568767802747D-01
   108  1.0700000000000D+00 -1.1819371803758D-01 -3.6327462687008D-01
   109  1.0800000000000D+00 -9.1389457652156D-02 -4.1503420666492D-01
   110  1.0900000000000D+00 -6.6177668364699D-02 -4.6070725522102D-01
   111  1.1000000000000D+00 -4.2714030036111D-02 -5.0009606098271D-01
   112  1.1100000000000D+00 -2.1129068990017D-02 -5.3306680889331D-01
   113  1.1200000000000D+00 -1.5272113904178D-03 -5.5955127844254D-01
   114  1.1300000000000D+00  1.6013842873997D-02 -5.7954776561762D-01
   115  1.1400000000000D+00  3.1443418489605D-02 -5.9312121141203D-01
   116  1.1500000000000D+00  4.4737832068618D-02 -6.0040252979387D-01
   117  1.1600000000000D+00  5.5900030126182D-02 -6.0158713960578D-01
   118  1.1700000000000D+00  6.4958904217933D-02 -5.9693271708433D-01
   119  1.1800000000000D+00  7.1968294328968D-02 -5.8675619692640D-01
   120  1.1900000000000D+00  7.7005695004580D-02 -5.7143005821493D-01
   121  1.2000000000000D+00  8.0170684368105D-02 -5.5137794548606D-01
   122  1.2100000000000D+00  8.1583099633721D-02 -5.2706968378516D-01
   123  1.2200000000000D+00  8.1380986207724D-02 -4.9901575517605D-01
   124  1.2300000000000D+00  7.9718350535664D-02 -4.6776131174814D-01
   125  1.2400000000000D+00  7.6762750946975D-02 -4.3387981029500D-01
   126  1.2500000000000D+00  7.2692762120846D-02 -3.9796635721476D-01
   127  1.2600000000000D+00  6.7695350555527D-02 -3.6063085654994D-01
   128  1.2700000000000D+00  6.1963205204271D-02 -3.2249107239538D-01
   129  1.2800000000000D+00  5.5692058046225D-02 -2.8416568921145D-01
   130  1.2900000000000D+00  4.9077957098794D-02 -2.4626725327957D-01
   131  1.3000000000000D+00  4.2314745605673D-02 -2.0939568834541D-01
   132  1.3100000000000D+00  3.5592119758809D-02 -1.7413347511874D-01
   133  1.3200000000000D+00  2.9090325014525D-02 -1.4103110702856D-01
   134  1.3300000000000D+00  2.2974983801452D-02 -1.1059304054958D-01
   135  1.3400000000000D+00  1.7391652076716D-02 -8.3263023616931D-02
   136  1.3500000000000D+00  1.2463636995575D-02 -5.9418755358033D-02
   137  1.3600000000000D+00  8.2932052665604D-03 -3.9380979481731D-02
   138  1.3700000000000D+00  4.9459167236402D-03 -2.3343910738056D-02
   139  1.3800000000000D+00  2.4613794033306D-03 -1.1431084717082D-02
   140  1.3900000000000D+00  9.5038820188509D-04 -4.1199503085960D-03
   141  1.4000000000000D+00  2.8710528743359D-04 -8.9867871528662D-04
   142  1.4100000000000D+00  5.7940156981290D-05 -5.8075605717307D-06
   143  1.4200000000000D+00 -5.7352591797452D-07 -2.8322152972448D-06
   144  1.4300000000000D+00 -1.5482457057082D-06 -3.5100031859069D-05
   145  1.4400000000000D+00  9.8346682941899D-07  2.6049667757691D-06
   146  1.4500000000000D+00  7.2839814603005D-07  3.0827362897765D-06
   147  1.4600000000000D+00 -5.2724129237290D-07  1.3269648566729D-06
   148  1.4700000000000D+00 -1.2614366490517D-07  3.1747932615013D-07
   149  1.4800000000000D+00  0.0000000000000D+00  0.0000000000000D+00
   150  1.4900000000000D+00  0.0000000000000D+00  0.0000000000000D+00
   151  1.5000000000000D+00  0.0000000000000D+00  0.0000000000000D+00
   152  1.5100000000000D+00  0.0000000000000D+00  0.0000000000000D+00
   153  1.5200000000000D+00  0.0000000000000D+00  0.0000000000000D+00
   154  1.5300000000000D+00  0.0000000000000D+00  0.0000000000000D+00
   155  1.5400000000000D+00  0.0000000000000D+00  0.0000000000000D+00
   156  1.5500000000000D+00  0.0000000000000D+00  0.0000000000000D+00
   157  1.5600000000000D+00  0.0000000000000D+00  0.0000000000000D+00
   158  1.5700000000000D+00  0.0000000000000D+00  0.0000000000000D+00
   159  1.5800000000000D+00  0.0000000000000D+00  0.0000000000000D+00
   160  1.5900000000000D+00  0.0000000000000D+00  0.0000000000000D+00
   161  1.6000000000000D+00  0.0000000000000D+00  0.0000000000000D+00
   162  1.6100000000000D+00  0.0000000000000D+00  0.0000000000000D+00
   163  1.6200000000000D+00  0.0000000000000D+00  0.0000000000000D+00
   164  1.6300000000000D+00  0.0000000000000D+00  0.0000000000000D+00
   165  1.6400000000000D+00  0.0000000000000D+00  0.0000000000000D+00
   166  1.6500000000000D+00  0.0000000000000D+00  0.0000000000000D+00
   167  1.6600000000000D+00  0.0000000000000D+00  0.0000000000000D+00
   168  1.6700000000000D+00  0.0000000000000D+00  0.0000000000000D+00
   169  1.6800000000000D+00  0.0000000000000D+00  0.0000000000000D+00
   170  1.6900000000000D+00  0.0000000000000D+00  0.0000000000000D+00
   171  1.7000000000000D+00  0.0000000000000D+00  0.0000000000000D+00
   172  1.7100000000000D+00  0.0000000000000D+00  0.0000000000000D+00
   173  1.7200000000000D+00  0.0000000000000D+00  0.0000000000000D+00
   174  1.7300000000000D+00  0.0000000000000D+00  0.0000000000000D+00
   175  1.7400000000000D+00  0.0000000000000D+00  0.0000000000000D+00
   176  1.7500000000000D+00  0.0000000000000D+00  0.0000000000000D+00
   177  1.7600000000000D+00  0.0000000000000D+00  0.0000000000000D+00
   178  1.7700000000000D+00  0.0000000000000D+00  0.0000000000000D+00
   179  1.7800000000000D+00  0.0000000000000D+00  0.0000000000000D+00
   180  1.7900000000000D+00  0.0000000000000D+00  0.0000000000000D+00
   181  1.8000000000000D+00  0.0000000000000D+00  0.0000000000000D+00
   182  1.8100000000000D+00  0.0000000000000D+00  0.0000000000000D+00
   183  1.8200000000000D+00  0.0000000000000D+00  0.0000000000000D+00
   184  1.8300000000000D+00  0.0000000000000D+00  0.0000000000000D+00
   185  1.8400000000000D+00  0.0000000000000D+00  0.0000000000000D+00
   186  1.8500000000000D+00  0.0000000000000D+00  0.0000000000000D+00
   187  1.8600000000000D+00  0.0000000000000D+00  0.0000000000000D+00
   188  1.8700000000000D+00  0.0000000000000D+00  0.0000000000000D+00
   189  1.8800000000000D+00  0.0000000000000D+00  0.0000000000000D+00
   190  1.8900000000000D+00  0.0000000000000D+00  0.0000000000000D+00
   191  1.9000000000000D+00  0.0000000000000D+00  0.0000000000000D+00
   192  1.9100000000000D+00  0.0000000000000D+00  0.0000000000000D+00
   193  1.9200000000000D+00  0.0000000000000D+00  0.0000000000000D+00
   194  1.9300000000000D+00  0.0000000000000D+00  0.0000000000000D+00
   195  1.9400000000000D+00  0.0000000000000D+00  0.0000000000000D+00
   196  1.9500000000000D+00  0.0000000000000D+00  0.0000000000000D+00
   197  1.9600000000000D+00  0.0000000000000D+00  0.0000000000000D+00
   198  1.9700000000000D+00  0.0000000000000D+00  0.0000000000000D+00
   199  1.9800000000000D+00  0.0000000000000D+00  0.0000000000000D+00
   200  1.9900000000000D+00  0.0000000000000D+00  0.0000000000000D+00
   201  2.0000000000000D+00  0.0000000000000D+00  0.0000000000000D+00
   202  2.0100000000000D+00  0.0000000000000D+00  0.0000000000000D+00
   203  2.0200000000000D+00  0.0000000000000D+00  0.0000000000000D+00
   204  2.0300000000000D+00  0.0000000000000D+00  0.0000000000000D+00
   205  2.0400000000000D+00  0.0000000000000D+00  0.0000000000000D+00
   206  2.0500000000000D+00  0.0000000000000D+00  0.0000000000000D+00
   207  2.0600000000000D+00  0.0000000000000D+00  0.0000000000000D+00
   208  2.0700000000000D+00  0.0000000000000D+00  0.0000000000000D+00
   209  2.0800000000000D+00  0.0000000000000D+00  0.0000000000000D+00
   210  2.0900000000000D+00  0.0000000000000D+00  0.0000000000000D+00
   211  2.1000000000000D+00  0.0000000000000D+00  0.0000000000000D+00
   212  2.1100000000000D+00  0.0000000000000D+00  0.0000000000000D+00
   213  2.1200000000000D+00  0.0000000000000D+00  0.0000000000000D+00
   214  2.1300000000000D+00  0.0000000000000D+00  0.0000000000000D+00
   215  2.1400000000000D+00  0.0000000000000D+00  0.0000000000000D+00
   216  2.1500000000000D+00  0.0000000000000D+00  0.0000000000000D+00
   217  2.1600000000000D+00  0.0000000000000D+00  0.0000000000000D+00
   218  2.1700000000000D+00  0.0000000000000D+00  0.0000000000000D+00
   219  2.1800000000000D+00  0.0000000000000D+00  0.0000000000000D+00
   220  2.1900000000000D+00  0.0000000000000D+00  0.0000000000000D+00
   221  2.2000000000000D+00  0.0000000000000D+00  0.0000000000000D+00
   222  2.2100000000000D+00  0.0000000000000D+00  0.0000000000000D+00
   223  2.2200000000000D+00  0.0000000000000D+00  0.0000000000000D+00
   224  2.2300000000000D+00  0.0000000000000D+00  0.0000000000000D+00
   225  2.2400000000000D+00  0.0000000000000D+00  0.0000000000000D+00
   226  2.2500000000000D+00  0.0000000000000D+00  0.0000000000000D+00
   227  2.2600000000000D+00  0.0000000000000D+00  0.0000000000000D+00
   228  2.2700000000000D+00  0.0000000000000D+00  0.0000000000000D+00
   229  2.2800000000000D+00  0.0000000000000D+00  0.0000000000000D+00
   230  2.2900000000000D+00  0.0000000000000D+00  0.0000000000000D+00
   231  2.3000000000000D+00  0.0000000000000D+00  0.0000000000000D+00
   232  2.3100000000000D+00  0.0000000000000D+00  0.0000000000000D+00
   233  2.3200000000000D+00  0.0000000000000D+00  0.0000000000000D+00
   234  2.3300000000000D+00  0.0000000000000D+00  0.0000000000000D+00
   235  2.3400000000000D+00  0.0000000000000D+00  0.0000000000000D+00
   236  2.3500000000000D+00  0.0000000000000D+00  0.0000000000000D+00
   237  2.3600000000000D+00  0.0000000000000D+00  0.0000000000000D+00
   238  2.3700000000000D+00  0.0000000000000D+00  0.0000000000000D+00
   239  2.3800000000000D+00  0.0000000000000D+00  0.0000000000000D+00
   240  2.3900000000000D+00  0.0000000000000D+00  0.0000000000000D+00
   241  2.4000000000000D+00  0.0000000000000D+00  0.0000000000000D+00
   242  2.4100000000000D+00  0.0000000000000D+00  0.0000000000000D+00
   243  2.4200000000000D+00  0.0000000000000D+00  0.0000000000000D+00
   244  2.4300000000000D+00  0.0000000000000D+00  0.0000000000000D+00
   245  2.4400000000000D+00  0.0000000000000D+00  0.0000000000000D+00
   246  2.4500000000000D+00  0.0000000000000D+00  0.0000000000000D+00
   247  2.4600000000000D+00  0.0000000000000D+00  0.0000000000000D+00
   248  2.4700000000000D+00  0.0000000000000D+00  0.0000000000000D+00
   249  2.4800000000000D+00  0.0000000000000D+00  0.0000000000000D+00
   250  2.4900000000000D+00  0.0000000000000D+00  0.0000000000000D+00
   251  2.5000000000000D+00  0.0000000000000D+00  0.0000000000000D+00
   252  2.5100000000000D+00  0.0000000000000D+00  0.0000000000000D+00
   253  2.5200000000000D+00  0.0000000000000D+00  0.0000000000000D+00
   254  2.5300000000000D+00  0.0000000000000D+00  0.0000000000000D+00
   255  2.5400000000000D+00  0.0000000000000D+00  0.0000000000000D+00
   256  2.5500000000000D+00  0.0000000000000D+00  0.0000000000000D+00
   257  2.5600000000000D+00  0.0000000000000D+00  0.0000000000000D+00
   258  2.5700000000000D+00  0.0000000000000D+00  0.0000000000000D+00
   259  2.5800000000000D+00  0.0000000000000D+00  0.0000000000000D+00
   260  2.5900000000000D+00  0.0000000000000D+00  0.0000000000000D+00
   261  2.6000000000000D+00  0.0000000000000D+00  0.0000000000000D+00
   262  2.6100000000000D+00  0.0000000000000D+00  0.0000000000000D+00
   263  2.6200000000000D+00  0.0000000000000D+00  0.0000000000000D+00
   264  2.6300000000000D+00  0.0000000000000D+00  0.0000000000000D+00
   265  2.6400000000000D+00  0.0000000000000D+00  0.0000000000000D+00
   266  2.6500000000000D+00  0.0000000000000D+00  0.0000000000000D+00
   267  2.6600000000000D+00  0.0000000000000D+00  0.0000000000000D+00
   268  2.6700000000000D+00  0.0000000000000D+00  0.0000000000000D+00
   269  2.6800000000000D+00  0.0000000000000D+00  0.0000000000000D+00
   270  2.6900000000000D+00  0.0000000000000D+00  0.0000000000000D+00
   271  2.7000000000000D+00  0.0000000000000D+00  0.0000000000000D+00
   272  2.7100000000000D+00  0.0000000000000D+00  0.0000000000000D+00
   273  2.7200000000000D+00  0.0000000000000D+00  0.0000000000000D+00
   274  2.7300000000000D+00  0.0000000000000D+00  0.0000000000000D+00
   275  2.7400000000000D+00  0.0000000000000D+00  0.0000000000000D+00
   276  2.7500000000000D+00  0.0000000000000D+00  0.0000000000000D+00
   277  2.7600000000000D+00  0.0000000000000D+00  0.0000000000000D+00
   278  2.7700000000000D+00  0.0000000000000D+00  0.0000000000000D+00
   279  2.7800000000000D+00  0.0000000000000D+00  0.0000000000000D+00
   280  2.7900000000000D+00  0.0000000000000D+00  0.0000000000000D+00
   281  2.8000000000000D+00  0.0000000000000D+00  0.0000000000000D+00
   282  2.8100000000000D+00  0.0000000000000D+00  0.0000000000000D+00
   283  2.8200000000000D+00  0.0000000000000D+00  0.0000000000000D+00
   284  2.8300000000000D+00  0.0000000000000D+00  0.0000000000000D+00
   285  2.8400000000000D+00  0.0000000000000D+00  0.0000000000000D+00
   286  2.8500000000000D+00  0.0000000000000D+00  0.0000000000000D+00
   287  2.8600000000000D+00  0.0000000000000D+00  0.0000000000000D+00
   288  2.8700000000000D+00  0.0000000000000D+00  0.0000000000000D+00
   289  2.8800000000000D+00  0.0000000000000D+00  0.0000000000000D+00
   290  2.8900000000000D+00  0.0000000000000D+00  0.0000000000000D+00
   291  2.9000000000000D+00  0.0000000000000D+00  0.0000000000000D+00
   292  2.9100000000000D+00  0.0000000000000D+00  0.0000000000000D+00
   293  2.9200000000000D+00  0.0000000000000D+00  0.0000000000000D+00
   294  2.9300000000000D+00  0.0000000000000D+00  0.0000000000000D+00
   295  2.9400000000000D+00  0.0000000000000D+00  0.0000000000000D+00
   296  2.9500000000000D+00  0.0000000000000D+00  0.0000000000000D+00
   297  2.9600000000000D+00  0.0000000000000D+00  0.0000000000000D+00
   298  2.9700000000000D+00  0.0000000000000D+00  0.0000000000000D+00
   299  2.9800000000000D+00  0.0000000000000D+00  0.0000000000000D+00
   300  2.9900000000000D+00  0.0000000000000D+00  0.0000000000000D+00
   301  3.0000000000000D+00  0.0000000000000D+00  0.0000000000000D+00
   302  3.0100000000000D+00  0.0000000000000D+00  0.0000000000000D+00
   303  3.0200000000000D+00  0.0000000000000D+00  0.0000000000000D+00
   304  3.0300000000000D+00  0.0000000000000D+00  0.0000000000000D+00
   305  3.0400000000000D+00  0.0000000000000D+00  0.0000000000000D+00
   306  3.0500000000000D+00  0.0000000000000D+00  0.0000000000000D+00
   307  3.0600000000000D+00  0.0000000000000D+00  0.0000000000000D+00
   308  3.0700000000000D+00  0.0000000000000D+00  0.0000000000000D+00
   309  3.0800000000000D+00  0.0000000000000D+00  0.0000000000000D+00
   310  3.0900000000000D+00  0.0000000000000D+00  0.0000000000000D+00
   311  3.1000000000000D+00  0.0000000000000D+00  0.0000000000000D+00
   312  3.1100000000000D+00  0.0000000000000D+00  0.0000000000000D+00
   313  3.1200000000000D+00  0.0000000000000D+00  0.0000000000000D+00
   314  3.1300000000000D+00  0.0000000000000D+00  0.0000000000000D+00
   315  3.1400000000000D+00  0.0000000000000D+00  0.0000000000000D+00
   316  3.1500000000000D+00  0.0000000000000D+00  0.0000000000000D+00
   317  3.1600000000000D+00  0.0000000000000D+00  0.0000000000000D+00
   318  3.1700000000000D+00  0.0000000000000D+00  0.0000000000000D+00
   319  3.1800000000000D+00  0.0000000000000D+00  0.0000000000000D+00
   320  3.1900000000000D+00  0.0000000000000D+00  0.0000000000000D+00
   321  3.2000000000000D+00  0.0000000000000D+00  0.0000000000000D+00
   322  3.2100000000000D+00  0.0000000000000D+00  0.0000000000000D+00
   323  3.2200000000000D+00  0.0000000000000D+00  0.0000000000000D+00
   324  3.2300000000000D+00  0.0000000000000D+00  0.0000000000000D+00
   325  3.2400000000000D+00  0.0000000000000D+00  0.0000000000000D+00
   326  3.2500000000000D+00  0.0000000000000D+00  0.0000000000000D+00
   327  3.2600000000000D+00  0.0000000000000D+00  0.0000000000000D+00
   328  3.2700000000000D+00  0.0000000000000D+00  0.0000000000000D+00
   329  3.2800000000000D+00  0.0000000000000D+00  0.0000000000000D+00
   330  3.2900000000000D+00  0.0000000000000D+00  0.0000000000000D+00
   331  3.3000000000000D+00  0.0000000000000D+00  0.0000000000000D+00
   332  3.3100000000000D+00  0.0000000000000D+00  0.0000000000000D+00
   333  3.3200000000000D+00  0.0000000000000D+00  0.0000000000000D+00
   334  3.3300000000000D+00  0.0000000000000D+00  0.0000000000000D+00
   335  3.3400000000000D+00  0.0000000000000D+00  0.0000000000000D+00
   336  3.3500000000000D+00  0.0000000000000D+00  0.0000000000000D+00
   337  3.3600000000000D+00  0.0000000000000D+00  0.0000000000000D+00
   338  3.3700000000000D+00  0.0000000000000D+00  0.0000000000000D+00
   339  3.3800000000000D+00  0.0000000000000D+00  0.0000000000000D+00
   340  3.3900000000000D+00  0.0000000000000D+00  0.0000000000000D+00
   341  3.4000000000000D+00  0.0000000000000D+00  0.0000000000000D+00
   342  3.4100000000000D+00  0.0000000000000D+00  0.0000000000000D+00
   343  3.4200000000000D+00  0.0000000000000D+00  0.0000000000000D+00
   344  3.4300000000000D+00  0.0000000000000D+00  0.0000000000000D+00
   345  3.4400000000000D+00  0.0000000000000D+00  0.0000000000000D+00
   346  3.4500000000000D+00  0.0000000000000D+00  0.0000000000000D+00
   347  3.4600000000000D+00  0.0000000000000D+00  0.0000000000000D+00
   348  3.4700000000000D+00  0.0000000000000D+00  0.0000000000000D+00
   349  3.4800000000000D+00  0.0000000000000D+00  0.0000000000000D+00
   350  3.4900000000000D+00  0.0000000000000D+00  0.0000000000000D+00
   351  3.5000000000000D+00  0.0000000000000D+00  0.0000000000000D+00
   352  3.5100000000000D+00  0.0000000000000D+00  0.0000000000000D+00
   353  3.5200000000000D+00  0.0000000000000D+00  0.0000000000000D+00
   354  3.5300000000000D+00  0.0000000000000D+00  0.0000000000000D+00
   355  3.5400000000000D+00  0.0000000000000D+00  0.0000000000000D+00
   356  3.5500000000000D+00  0.0000000000000D+00  0.0000000000000D+00
   357  3.5600000000000D+00  0.0000000000000D+00  0.0000000000000D+00
   358  3.5700000000000D+00  0.0000000000000D+00  0.0000000000000D+00
   359  3.5800000000000D+00  0.0000000000000D+00  0.0000000000000D+00
   360  3.5900000000000D+00  0.0000000000000D+00  0.0000000000000D+00
   361  3.6000000000000D+00  0.0000000000000D+00  0.0000000000000D+00
   362  3.6100000000000D+00  0.0000000000000D+00  0.0000000000000D+00
   363  3.6200000000000D+00  0.0000000000000D+00  0.0000000000000D+00
   364  3.6300000000000D+00  0.0000000000000D+00  0.0000000000000D+00
   365  3.6400000000000D+00  0.0000000000000D+00  0.0000000000000D+00
   366  3.6500000000000D+00  0.0000000000000D+00  0.0000000000000D+00
   367  3.6600000000000D+00  0.0000000000000D+00  0.0000000000000D+00
   368  3.6700000000000D+00  0.0000000000000D+00  0.0000000000000D+00
   369  3.6800000000000D+00  0.0000000000000D+00  0.0000000000000D+00
   370  3.6900000000000D+00  0.0000000000000D+00  0.0000000000000D+00
   371  3.7000000000000D+00  0.0000000000000D+00  0.0000000000000D+00
   372  3.7100000000000D+00  0.0000000000000D+00  0.0000000000000D+00
   373  3.7200000000000D+00  0.0000000000000D+00  0.0000000000000D+00
   374  3.7300000000000D+00  0.0000000000000D+00  0.0000000000000D+00
   375  3.7400000000000D+00  0.0000000000000D+00  0.0000000000000D+00
   376  3.7500000000000D+00  0.0000000000000D+00  0.0000000000000D+00
   377  3.7600000000000D+00  0.0000000000000D+00  0.0000000000000D+00
   378  3.7700000000000D+00  0.0000000000000D+00  0.0000000000000D+00
   379  3.7800000000000D+00  0.0000000000000D+00  0.0000000000000D+00
   380  3.7900000000000D+00  0.0000000000000D+00  0.0000000000000D+00
   381  3.8000000000000D+00  0.0000000000000D+00  0.0000000000000D+00
   382  3.8100000000000D+00  0.0000000000000D+00  0.0000000000000D+00
   383  3.8200000000000D+00  0.0000000000000D+00  0.0000000000000D+00
   384  3.8300000000000D+00  0.0000000000000D+00  0.0000000000000D+00
   385  3.8400000000000D+00  0.0000000000000D+00  0.0000000000000D+00
   386  3.8500000000000D+00  0.0000000000000D+00  0.0000000000000D+00
   387  3.8600000000000D+00  0.0000000000000D+00  0.0000000000000D+00
   388  3.8700000000000D+00  0.0000000000000D+00  0.0000000000000D+00
   389  3.8800000000000D+00  0.0000000000000D+00  0.0000000000000D+00
   390  3.8900000000000D+00  0.0000000000000D+00  0.0000000000000D+00
   391  3.9000000000000D+00  0.0000000000000D+00  0.0000000000000D+00
   392  3.9100000000000D+00  0.0000000000000D+00  0.0000000000000D+00
   393  3.9200000000000D+00  0.0000000000000D+00  0.0000000000000D+00
   394  3.9300000000000D+00  0.0000000000000D+00  0.0000000000000D+00
   395  3.9400000000000D+00  0.0000000000000D+00  0.0000000000000D+00
   396  3.9500000000000D+00  0.0000000000000D+00  0.0000000000000D+00
   397  3.9600000000000D+00  0.0000000000000D+00  0.0000000000000D+00
   398  3.9700000000000D+00  0.0000000000000D+00  0.0000000000000D+00
   399  3.9800000000000D+00  0.0000000000000D+00  0.0000000000000D+00
   400  3.9900000000000D+00  0.0000000000000D+00  0.0000000000000D+00
   401  4.0000000000000D+00  0.0000000000000D+00  0.0000000000000D+00
   402  4.0100000000000D+00  0.0000000000000D+00  0.0000000000000D+00
   403  4.0200000000000D+00  0.0000000000000D+00  0.0000000000000D+00
   404  4.0300000000000D+00  0.0000000000000D+00  0.0000000000000D+00
   405  4.0400000000000D+00  0.0000000000000D+00  0.0000000000000D+00
   406  4.0500000000000D+00  0.0000000000000D+00  0.0000000000000D+00
   407  4.0600000000000D+00  0.0000000000000D+00  0.0000000000000D+00
   408  4.0700000000000D+00  0.0000000000000D+00  0.0000000000000D+00
   409  4.0800000000000D+00  0.0000000000000D+00  0.0000000000000D+00
   410  4.0900000000000D+00  0.0000000000000D+00  0.0000000000000D+00
   411  4.1000000000000D+00  0.0000000000000D+00  0.0000000000000D+00
   412  4.1100000000000D+00  0.0000000000000D+00  0.0000000000000D+00
   413  4.1200000000000D+00  0.0000000000000D+00  0.0000000000000D+00
   414  4.1300000000000D+00  0.0000000000000D+00  0.0000000000000D+00
   415  4.1400000000000D+00  0.0000000000000D+00  0.0000000000000D+00
   416  4.1500000000000D+00  0.0000000000000D+00  0.0000000000000D+00
   417  4.1600000000000D+00  0.0000000000000D+00  0.0000000000000D+00
   418  4.1700000000000D+00  0.0000000000000D+00  0.0000000000000D+00
   419  4.1800000000000D+00  0.0000000000000D+00  0.0000000000000D+00
   420  4.1900000000000D+00  0.0000000000000D+00  0.0000000000000D+00
   421  4.2000000000000D+00  0.0000000000000D+00  0.0000000000000D+00
   422  4.2100000000000D+00  0.0000000000000D+00  0.0000000000000D+00