As    ONCVPSP-3.3.0  r_core=   1.76603   1.70395   1.80867
     33.0000     15.0000      220408    zatom,zion,pspd
     8       2   2     4   600     0    pspcod,pspxc,lmax,lloc,mmax,r2well
  5.99000000  0.00000000  0.00000000    rchrg fchrg qchrg
     2     2     2     0     0    nproj
     1     1           extension_switch
   0                         8.2787933534867D+00  8.8630009012962D-01
     1  0.0000000000000D+00  7.2660211181130D-12 -6.8456323942812D-11
     2  1.0000000000000D-02  3.5464867986068D-02 -1.7139069924755D-02
     3  2.0000000000000D-02  7.0915107033903D-02 -3.4274227738071D-02
     4  3.0000000000000D-02  1.0633601746656D-01 -5.1401315287078D-02
     5  4.0000000000000D-02  1.4171275859817D-01 -6.8515684569192D-02
     6  5.0000000000000D-02  1.7703027939878D-01 -8.5611958372711D-02
     7  6.0000000000000D-02  2.1227325055750D-01 -1.0268379754720D-01
     8  7.0000000000000D-02  2.4742599840124D-01 -1.1972367703281D-01
     9  8.0000000000000D-02  2.8247244111963D-01 -1.3672267270931D-01
    10  9.0000000000000D-02  3.1739602773732D-01 -1.5367026104084D-01
    11  1.0000000000000D-01  3.5217968026404D-01 -1.7055413339283D-01
    12  1.1000000000000D-01  3.8680573944033D-01 -1.8736002678248D-01
    13  1.2000000000000D-01  4.2125591448231D-01 -2.0407157269635D-01
    14  1.3000000000000D-01  4.5551123721279D-01 -2.2067016546712D-01
    15  1.4000000000000D-01  4.8955202094795D-01 -2.3713485154903D-01
    16  1.5000000000000D-01  5.2335782448954D-01 -2.5344224086877D-01
    17  1.6000000000000D-01  5.5690742155092D-01 -2.6956644125556D-01
    18  1.7000000000000D-01  5.9017877592256D-01 -2.8547901677505D-01
    19  1.8000000000000D-01  6.2314902265784D-01 -3.0114897060445D-01
    20  1.9000000000000D-01  6.5579445553428D-01 -3.1654275289553D-01
    21  2.0000000000000D-01  6.8809052101699D-01 -3.3162429387695D-01
    22  2.1000000000000D-01  7.2001181892302D-01 -3.4635506225112D-01
    23  2.2000000000000D-01  7.5153210995369D-01 -3.6069414874328D-01
    24  2.3000000000000D-01  7.8262433023139D-01 -3.7459837446506D-01
    25  2.4000000000000D-01  8.1326061294323D-01 -3.8802242356115D-01
    26  2.5000000000000D-01  8.4341231716065D-01 -4.0091899941898D-01
    27  2.6000000000000D-01  8.7305006386851D-01 -4.1323900353781D-01
    28  2.7000000000000D-01  9.0214377920119D-01 -4.2493173597698D-01
    29  2.8000000000000D-01  9.3066274484656D-01 -4.3594511613587D-01
    30  2.9000000000000D-01  9.5857565554104D-01 -4.4622592245865D-01
    31  3.0000000000000D-01  9.8585068354100D-01 -4.5572004951059D-01
    32  3.1000000000000D-01  1.0124555499177D+00 -4.6437278073675D-01
    33  3.2000000000000D-01  1.0383576024837D+00 -4.7212907509120D-01
    34  3.3000000000000D-01  1.0635239001219D+00 -4.7893386561698D-01
    35  3.4000000000000D-01  1.0879213032473D+00 -4.8473236796267D-01
    36  3.5000000000000D-01  1.1115165700960D+00 -4.8947039674332D-01
    37  3.6000000000000D-01  1.1342764584985D+00 -4.9309468759046D-01
    38  3.7000000000000D-01  1.1561678327554D+00 -4.9555322269050D-01
    39  3.8000000000000D-01  1.1771577752002D+00 -4.9679555758001D-01
    40  3.9000000000000D-01  1.1972137019997D+00 -4.9677314695516D-01
    41  4.0000000000000D-01  1.2163034827070D+00 -4.9543966725458D-01
    42  4.1000000000000D-01  1.2343955630530D+00 -4.9275133379764D-01
    43  4.2000000000000D-01  1.2514590904326D+00 -4.8866721029514D-01
    44  4.3000000000000D-01  1.2674640415121D+00 -4.8314950860428D-01
    45  4.4000000000000D-01  1.2823813513625D+00 -4.7616387666709D-01
    46  4.5000000000000D-01  1.2961830434974D+00 -4.6767967265556D-01
    47  4.6000000000000D-01  1.3088423601769D+00 -4.5767022344456D-01
    48  4.7000000000000D-01  1.3203338923192D+00 -4.4611306564409D-01
    49  4.8000000000000D-01  1.3306337083506D+00 -4.3299016754609D-01
    50  4.9000000000000D-01  1.3397194813107D+00 -4.1828813047560D-01
    51  5.0000000000000D-01  1.3475706135249D+00 -4.0199836818081D-01
    52  5.1000000000000D-01  1.3541683581500D+00 -3.8411726304987D-01
    53  5.2000000000000D-01  1.3594959369016D+00 -3.6464629810470D-01
    54  5.3000000000000D-01  1.3635386532732D+00 -3.4359216388846D-01
    55  5.4000000000000D-01  1.3662840005646D+00 -3.2096683953737D-01
    56  5.5000000000000D-01  1.3677217640523D+00 -2.9678764750269D-01
    57  5.6000000000000D-01  1.3678441166441D+00 -2.7107728156833D-01
    58  5.7000000000000D-01  1.3666457073863D+00 -2.4386380798774D-01
    59  5.8000000000000D-01  1.3641237422108D+00 -2.1518063974305D-01
    60  5.9000000000000D-01  1.3602780563389D+00 -1.8506648410558D-01
    61  6.0000000000000D-01  1.3551111777913D+00 -1.5356526385022D-01
    62  6.1000000000000D-01  1.3486283814872D+00 -1.2072601264432D-01
    63  6.2000000000000D-01  1.3408377334562D+00 -8.6602745294347D-02
    64  6.3000000000000D-01  1.3317501247286D+00 -5.1254303688539D-02
    65  6.4000000000000D-01  1.3213792945179D+00 -1.4744179420946D-02
    66  6.5000000000000D-01  1.3097418423556D+00  2.2859685780670D-02
    67  6.6000000000000D-01  1.2968572288951D+00  6.1485120573096D-02
    68  6.7000000000000D-01  1.2827477651528D+00  1.0105596409624D-01
    69  6.8000000000000D-01  1.2674385900162D+00  1.4149232418254D-01
    70  6.9000000000000D-01  1.2509576359056D+00  1.8271085211547D-01
    71  7.0000000000000D-01  1.2333355825406D+00  2.2462503229779D-01
    72  7.1000000000000D-01  1.2146057988239D+00  2.6714548512524D-01
    73  7.2000000000000D-01  1.1948042729213D+00  3.1018028130959D-01
    74  7.3000000000000D-01  1.1739695306812D+00  3.5363526585905D-01
    75  7.4000000000000D-01  1.1521425426028D+00  3.9741438989950D-01
    76  7.5000000000000D-01  1.1293666196284D+00  4.4142004851175D-01
    77  7.6000000000000D-01  1.1056872980997D+00  4.8555342276372D-01
    78  7.7000000000000D-01  1.0811522142844D+00  5.2971482413453D-01
    79  7.8000000000000D-01  1.0558109689384D+00  5.7380403955757D-01
    80  7.9000000000000D-01  1.0297149824360D+00  6.1772067535286D-01
    81  8.0000000000000D-01  1.0029173410546D+00  6.6136449837339D-01
    82  8.1000000000000D-01  9.7547263505920D-01  7.0463577275548D-01
    83  8.2000000000000D-01  9.4743678928715D-01  7.4743559073874D-01
    84  8.3000000000000D-01  9.1886688697982D-01  7.8966619610613D-01
    85  8.4000000000000D-01  8.8982098765839D-01  8.3123129888697D-01
    86  8.5000000000000D-01  8.6035793988043D-01  8.7203638006623D-01
    87  8.6000000000000D-01  8.3053718975312D-01  9.1198898514913D-01
    88  8.7000000000000D-01  8.0041858611142D-01  9.5099900554085D-01
    89  8.8000000000000D-01  7.7006218329708D-01  9.8897894681654D-01
    90  8.9000000000000D-01  7.3952804249752D-01  1.0258441830731D+00
    91  9.0000000000000D-01  7.0887603261987D-01  1.0615131966732D+00
    92  9.1000000000000D-01  6.7816563168671D-01  1.0959078028124D+00
    93  9.2000000000000D-01  6.4745572974552D-01  1.1289533584545D+00
    94  9.3000000000000D-01  6.1680443428246D-01  1.1605789553013D+00
    95  9.4000000000000D-01  5.8626887912451D-01  1.1907175965717D+00
    96  9.5000000000000D-01  5.5590503780079D-01  1.2193063574763D+00
    97  9.6000000000000D-01  5.2576754231462D-01  1.2462865293764D+00
    98  9.7000000000000D-01  4.9590950825216D-01  1.2716037477156D+00
    99  9.8000000000000D-01  4.6638236712352D-01  1.2952081039014D+00
   100  9.9000000000000D-01  4.3723570679369D-01  1.3170542413995D+00
   101  1.0000000000000D+00  4.0851712081912D-01  1.3371014363800D+00
   102  1.0100000000000D+00  3.8027206745732D-01  1.3553136633189D+00
   103  1.0200000000000D+00  3.5254373906418D-01  1.3716596460203D+00
   104  1.0300000000000D+00  3.2537294253607D-01  1.3861128945706D+00
   105  1.0400000000000D+00  2.9879799138942D-01  1.3986517287776D+00
   106  1.0500000000000D+00  2.7285461001058D-01  1.4092592886746D+00
   107  1.0600000000000D+00  2.4757585053099D-01  1.4179235326927D+00
   108  1.0700000000000D+00  2.2299202271584D-01  1.4246372241151D+00
   109  1.0800000000000D+00  1.9913063717769D-01  1.4293979064249D+00
   110  1.0900000000000D+00  1.7601636214427D-01  1.4322078681558D+00
   111  1.1000000000000D+00  1.5367099394415D-01  1.4330740978363D+00
   112  1.1100000000000D+00  1.3211344127678D-01  1.4320082295954D+00
   113  1.1200000000000D+00  1.1135972326614D-01  1.4290264799673D+00
   114  1.1300000000000D+00  9.1422981206949D-02  1.4241495763904D+00
   115  1.1400000000000D+00  7.2313503846591D-02  1.4174026778627D+00
   116  1.1500000000000D+00  5.4038765954213D-02  1.4088152881573D+00
   117  1.1600000000000D+00  3.6603479858590D-02  1.3984211619547D+00
   118  1.1700000000000D+00  2.0009659555169D-02  1.3862582041850D+00
   119  1.1800000000000D+00  4.2566969321004D-03  1.3723683628333D+00
   120  1.1900000000000D+00 -1.0658550429256D-02  1.3567975153822D+00
   121  1.2000000000000D+00 -2.4741660473130D-02  1.3395953490131D+00
   122  1.2100000000000D+00 -3.8000537561237D-02  1.3208152346315D+00
   123  1.2200000000000D+00 -5.0445293741032D-02  1.3005140947311D+00
   124  1.2300000000000D+00 -6.2088121159065D-02  1.2787522650376D+00
   125  1.2400000000000D+00 -7.2943156421118D-02  1.2555933498316D+00
   126  1.2500000000000D+00 -8.3026337725804D-02  1.2311040708246D+00
   127  1.2600000000000D+00 -9.2355255659928D-02  1.2053541093794D+00
   128  1.2700000000000D+00 -1.0094899854573D-01  1.1784159418599D+00
   129  1.2800000000000D+00 -1.0882799325059D-01  1.1503646678698D+00
   130  1.2900000000000D+00 -1.1601384239817D-01  1.1212778310910D+00
   131  1.3000000000000D+00 -1.2252915890304D-01  1.0912352324492D+00
   132  1.3100000000000D+00 -1.2839739876977D-01  1.0603187353087D+00
   133  1.3200000000000D+00 -1.3364269308053D-01  1.0286120624038D+00
   134  1.3300000000000D+00 -1.3828968006622D-01  9.9620058425019D-01
   135  1.3400000000000D+00 -1.4236333818086D-01  9.6317109874512D-01
   136  1.3500000000000D+00 -1.4588882101271D-01  9.2961160176052D-01
   137  1.3600000000000D+00 -1.4889129486825D-01  8.9561104853831D-01
   138  1.3700000000000D+00 -1.5139577985249D-01  8.6125910570106D-01
   139  1.3800000000000D+00 -1.5342699513118D-01  8.2664589387399D-01
   140  1.3900000000000D+00 -1.5500920914426D-01  7.9186172080351D-01
   141  1.4000000000000D+00 -1.5616609538495D-01  7.5699680505809D-01
   142  1.4100000000000D+00 -1.5692059430100D-01  7.2214099048583D-01
   143  1.4200000000000D+00 -1.5729478195804D-01  6.8738345147891D-01
   144  1.4300000000000D+00 -1.5730974578915D-01  6.5281238954181D-01
   145  1.4400000000000D+00 -1.5698546796713D-01  6.1851472135997D-01
   146  1.4500000000000D+00 -1.5634071667137D-01  5.8457575894034D-01
   147  1.4600000000000D+00 -1.5539294549050D-01  5.5107888244693D-01
   148  1.4700000000000D+00 -1.5415820129896D-01  5.1810520620628D-01
   149  1.4800000000000D+00 -1.5265104052700D-01  4.8573323897698D-01
   150  1.4900000000000D+00 -1.5088445414601D-01  4.5403853898221D-01
   151  1.5000000000000D+00 -1.4886980114346D-01  4.2309336501479D-01
   152  1.5100000000000D+00 -1.4661675058278D-01  3.9296632444758D-01
   153  1.5200000000000D+00 -1.4413323206901D-01  3.6372201939203D-01
   154  1.5300000000000D+00 -1.4142539440023D-01  3.3542069229840D-01
   155  1.5400000000000D+00 -1.3849757230173D-01  3.0811787213541D-01
   156  1.5500000000000D+00 -1.3535226061141D-01  2.8186402209144D-01
   157  1.5600000000000D+00 -1.3199009604112D-01  2.5670419094990D-01
   158  1.5700000000000D+00 -1.2840984622447D-01  2.3267767234348D-01
   159  1.5800000000000D+00 -1.2460840484090D-01  2.0981766527134D-01
   160  1.5900000000000D+00 -1.2058081507966D-01  1.8815105905481D-01
   161  1.6000000000000D+00 -1.1632020308043D-01  1.6769773762273D-01
   162  1.6100000000000D+00 -1.1181784209427D-01  1.4847053135443D-01
   163  1.6200000000000D+00 -1.0706340681839D-01  1.3047617283212D-01
   164  1.6300000000000D+00 -1.0204518984583D-01  1.1371596533975D-01
   165  1.6400000000000D+00 -9.6750407134107D-02  9.8186822591042D-02
   166  1.6500000000000D+00 -9.1165359517878D-02  8.3881569703915D-02
   167  1.6600000000000D+00 -8.5275446589717D-02  7.0788451966345D-02
   168  1.6700000000000D+00 -7.9065258593439D-02  5.8891084757367D-02
   169  1.6800000000000D+00 -7.2518663551130D-02  4.8168411265656D-02
   170  1.6900000000000D+00 -6.5618876997482D-02  3.8594592847815D-02
   171  1.7000000000000D+00 -5.8348532499051D-02  3.0138939402020D-02
   172  1.7100000000000D+00 -5.0651859567783D-02  2.2760897816517D-02
   173  1.7200000000000D+00 -4.2589326995049D-02  1.6430139232833D-02
   174  1.7300000000000D+00 -3.4411336239266D-02  1.1141403757458D-02
   175  1.7400000000000D+00 -2.5520876168407D-02  6.7584879411789D-03
   176  1.7500000000000D+00 -1.4819464981428D-02  3.0490238753537D-03
   177  1.7600000000000D+00 -4.2366589382503D-03  2.7159651515343D-04
   178  1.7700000000000D+00  1.5485009629698D-03 -8.8280214210434D-04
   179  1.7800000000000D+00  1.4767322078404D-03 -5.3337202598344D-04
   180  1.7900000000000D+00 -2.2846624297061D-04  9.0812732660887D-05
   181  1.8000000000000D+00 -4.3226223357286D-04  1.6140358536757D-04
   182  1.8100000000000D+00  1.4966684303861D-05 -7.5528590195937D-06
   183  1.8200000000000D+00  6.4836295181235D-05 -3.1797194856528D-05
   184  1.8300000000000D+00  3.2878357613663D-06 -1.5798873964875D-06
   185  1.8400000000000D+00 -8.0504870695629D-07  1.9627772782690D-06
   186  1.8500000000000D+00 -2.4982066068513D-07  6.0908403702528D-07
   187  1.8600000000000D+00  0.0000000000000D+00  0.0000000000000D+00
   188  1.8700000000000D+00  0.0000000000000D+00  0.0000000000000D+00
   189  1.8800000000000D+00  0.0000000000000D+00  0.0000000000000D+00
   190  1.8900000000000D+00  0.0000000000000D+00  0.0000000000000D+00
   191  1.9000000000000D+00  0.0000000000000D+00  0.0000000000000D+00
   192  1.9100000000000D+00  0.0000000000000D+00  0.0000000000000D+00
   193  1.9200000000000D+00  0.0000000000000D+00  0.0000000000000D+00
   194  1.9300000000000D+00  0.0000000000000D+00  0.0000000000000D+00
   195  1.9400000000000D+00  0.0000000000000D+00  0.0000000000000D+00
   196  1.9500000000000D+00  0.0000000000000D+00  0.0000000000000D+00
   197  1.9600000000000D+00  0.0000000000000D+00  0.0000000000000D+00
   198  1.9700000000000D+00  0.0000000000000D+00  0.0000000000000D+00
   199  1.9800000000000D+00  0.0000000000000D+00  0.0000000000000D+00
   200  1.9900000000000D+00  0.0000000000000D+00  0.0000000000000D+00
   201  2.0000000000000D+00  0.0000000000000D+00  0.0000000000000D+00
   202  2.0100000000000D+00  0.0000000000000D+00  0.0000000000000D+00
   203  2.0200000000000D+00  0.0000000000000D+00  0.0000000000000D+00
   204  2.0300000000000D+00  0.0000000000000D+00  0.0000000000000D+00
   205  2.0400000000000D+00  0.0000000000000D+00  0.0000000000000D+00
   206  2.0500000000000D+00  0.0000000000000D+00  0.0000000000000D+00
   207  2.0600000000000D+00  0.0000000000000D+00  0.0000000000000D+00
   208  2.0700000000000D+00  0.0000000000000D+00  0.0000000000000D+00
   209  2.0800000000000D+00  0.0000000000000D+00  0.0000000000000D+00
   210  2.0900000000000D+00  0.0000000000000D+00  0.0000000000000D+00
   211  2.1000000000000D+00  0.0000000000000D+00  0.0000000000000D+00
   212  2.1100000000000D+00  0.0000000000000D+00  0.0000000000000D+00
   213  2.1200000000000D+00  0.0000000000000D+00  0.0000000000000D+00
   214  2.1300000000000D+00  0.0000000000000D+00  0.0000000000000D+00
   215  2.1400000000000D+00  0.0000000000000D+00  0.0000000000000D+00
   216  2.1500000000000D+00  0.0000000000000D+00  0.0000000000000D+00
   217  2.1600000000000D+00  0.0000000000000D+00  0.0000000000000D+00
   218  2.1700000000000D+00  0.0000000000000D+00  0.0000000000000D+00
   219  2.1800000000000D+00  0.0000000000000D+00  0.0000000000000D+00
   220  2.1900000000000D+00  0.0000000000000D+00  0.0000000000000D+00
   221  2.2000000000000D+00  0.0000000000000D+00  0.0000000000000D+00
   222  2.2100000000000D+00  0.0000000000000D+00  0.0000000000000D+00
   223  2.2200000000000D+00  0.0000000000000D+00  0.0000000000000D+00
   224  2.2300000000000D+00  0.0000000000000D+00  0.0000000000000D+00
   225  2.2400000000000D+00  0.0000000000000D+00  0.0000000000000D+00
   226  2.2500000000000D+00  0.0000000000000D+00  0.0000000000000D+00
   227  2.2600000000000D+00  0.0000000000000D+00  0.0000000000000D+00
   228  2.2700000000000D+00  0.0000000000000D+00  0.0000000000000D+00
   229  2.2800000000000D+00  0.0000000000000D+00  0.0000000000000D+00
   230  2.2900000000000D+00  0.0000000000000D+00  0.0000000000000D+00
   231  2.3000000000000D+00  0.0000000000000D+00  0.0000000000000D+00
   232  2.3100000000000D+00  0.0000000000000D+00  0.0000000000000D+00
   233  2.3200000000000D+00  0.0000000000000D+00  0.0000000000000D+00
   234  2.3300000000000D+00  0.0000000000000D+00  0.0000000000000D+00
   235  2.3400000000000D+00  0.0000000000000D+00  0.0000000000000D+00
   236  2.3500000000000D+00  0.0000000000000D+00  0.0000000000000D+00
   237  2.3600000000000D+00  0.0000000000000D+00  0.0000000000000D+00
   238  2.3700000000000D+00  0.0000000000000D+00  0.0000000000000D+00
   239  2.3800000000000D+00  0.0000000000000D+00  0.0000000000000D+00
   240  2.3900000000000D+00  0.0000000000000D+00  0.0000000000000D+00
   241  2.4000000000000D+00  0.0000000000000D+00  0.0000000000000D+00
   242  2.4100000000000D+00  0.0000000000000D+00  0.0000000000000D+00
   243  2.4200000000000D+00  0.0000000000000D+00  0.0000000000000D+00
   244  2.4300000000000D+00  0.0000000000000D+00  0.0000000000000D+00
   245  2.4400000000000D+00  0.0000000000000D+00  0.0000000000000D+00
   246  2.4500000000000D+00  0.0000000000000D+00  0.0000000000000D+00
   247  2.4600000000000D+00  0.0000000000000D+00  0.0000000000000D+00
   248  2.4700000000000D+00  0.0000000000000D+00  0.0000000000000D+00
   249  2.4800000000000D+00  0.0000000000000D+00  0.0000000000000D+00
   250  2.4900000000000D+00  0.0000000000000D+00  0.0000000000000D+00
   251  2.5000000000000D+00  0.0000000000000D+00  0.0000000000000D+00
   252  2.5100000000000D+00  0.0000000000000D+00  0.0000000000000D+00
   253  2.5200000000000D+00  0.0000000000000D+00  0.0000000000000D+00
   254  2.5300000000000D+00  0.0000000000000D+00  0.0000000000000D+00
   255  2.5400000000000D+00  0.0000000000000D+00  0.0000000000000D+00
   256  2.5500000000000D+00  0.0000000000000D+00  0.0000000000000D+00
   257  2.5600000000000D+00  0.0000000000000D+00  0.0000000000000D+00
   258  2.5700000000000D+00  0.0000000000000D+00  0.0000000000000D+00
   259  2.5800000000000D+00  0.0000000000000D+00  0.0000000000000D+00
   260  2.5900000000000D+00  0.0000000000000D+00  0.0000000000000D+00
   261  2.6000000000000D+00  0.0000000000000D+00  0.0000000000000D+00
   262  2.6100000000000D+00  0.0000000000000D+00  0.0000000000000D+00
   263  2.6200000000000D+00  0.0000000000000D+00  0.0000000000000D+00
   264  2.6300000000000D+00  0.0000000000000D+00  0.0000000000000D+00
   265  2.6400000000000D+00  0.0000000000000D+00  0.0000000000000D+00
   266  2.6500000000000D+00  0.0000000000000D+00  0.0000000000000D+00
   267  2.6600000000000D+00  0.0000000000000D+00  0.0000000000000D+00
   268  2.6700000000000D+00  0.0000000000000D+00  0.0000000000000D+00
   269  2.6800000000000D+00  0.0000000000000D+00  0.0000000000000D+00
   270  2.6900000000000D+00  0.0000000000000D+00  0.0000000000000D+00
   271  2.7000000000000D+00  0.0000000000000D+00  0.0000000000000D+00
   272  2.7100000000000D+00  0.0000000000000D+00  0.0000000000000D+00
   273  2.7200000000000D+00  0.0000000000000D+00  0.0000000000000D+00
   274  2.7300000000000D+00  0.0000000000000D+00  0.0000000000000D+00
   275  2.7400000000000D+00  0.0000000000000D+00  0.0000000000000D+00
   276  2.7500000000000D+00  0.0000000000000D+00  0.0000000000000D+00
   277  2.7600000000000D+00  0.0000000000000D+00  0.0000000000000D+00
   278  2.7700000000000D+00  0.0000000000000D+00  0.0000000000000D+00
   279  2.7800000000000D+00  0.0000000000000D+00  0.0000000000000D+00
   280  2.7900000000000D+00  0.0000000000000D+00  0.0000000000000D+00
   281  2.8000000000000D+00  0.0000000000000D+00  0.0000000000000D+00
   282  2.8100000000000D+00  0.0000000000000D+00  0.0000000000000D+00
   283  2.8200000000000D+00  0.0000000000000D+00  0.0000000000000D+00
   284  2.8300000000000D+00  0.0000000000000D+00  0.0000000000000D+00
   285  2.8400000000000D+00  0.0000000000000D+00  0.0000000000000D+00
   286  2.8500000000000D+00  0.0000000000000D+00  0.0000000000000D+00
   287  2.8600000000000D+00  0.0000000000000D+00  0.0000000000000D+00
   288  2.8700000000000D+00  0.0000000000000D+00  0.0000000000000D+00
   289  2.8800000000000D+00  0.0000000000000D+00  0.0000000000000D+00
   290  2.8900000000000D+00  0.0000000000000D+00  0.0000000000000D+00
   291  2.9000000000000D+00  0.0000000000000D+00  0.0000000000000D+00
   292  2.9100000000000D+00  0.0000000000000D+00  0.0000000000000D+00
   293  2.9200000000000D+00  0.0000000000000D+00  0.0000000000000D+00
   294  2.9300000000000D+00  0.0000000000000D+00  0.0000000000000D+00
   295  2.9400000000000D+00  0.0000000000000D+00  0.0000000000000D+00
   296  2.9500000000000D+00  0.0000000000000D+00  0.0000000000000D+00
   297  2.9600000000000D+00  0.0000000000000D+00  0.0000000000000D+00
   298  2.9700000000000D+00  0.0000000000000D+00  0.0000000000000D+00
   299  2.9800000000000D+00  0.0000000000000D+00  0.0000000000000D+00
   300  2.9900000000000D+00  0.0000000000000D+00  0.0000000000000D+00
   301  3.0000000000000D+00  0.0000000000000D+00  0.0000000000000D+00
   302  3.0100000000000D+00  0.0000000000000D+00  0.0000000000000D+00
   303  3.0200000000000D+00  0.0000000000000D+00  0.0000000000000D+00
   304  3.0300000000000D+00  0.0000000000000D+00  0.0000000000000D+00
   305  3.0400000000000D+00  0.0000000000000D+00  0.0000000000000D+00
   306  3.0500000000000D+00  0.0000000000000D+00  0.0000000000000D+00
   307  3.0600000000000D+00  0.0000000000000D+00  0.0000000000000D+00
   308  3.0700000000000D+00  0.0000000000000D+00  0.0000000000000D+00
   309  3.0800000000000D+00  0.0000000000000D+00  0.0000000000000D+00
   310  3.0900000000000D+00  0.0000000000000D+00  0.0000000000000D+00
   311  3.1000000000000D+00  0.0000000000000D+00  0.0000000000000D+00
   312  3.1100000000000D+00  0.0000000000000D+00  0.0000000000000D+00
   313  3.1200000000000D+00  0.0000000000000D+00  0.0000000000000D+00
   314  3.1300000000000D+00  0.0000000000000D+00  0.0000000000000D+00
   315  3.1400000000000D+00  0.0000000000000D+00  0.0000000000000D+00
   316  3.1500000000000D+00  0.0000000000000D+00  0.0000000000000D+00
   317  3.1600000000000D+00  0.0000000000000D+00  0.0000000000000D+00
   318  3.1700000000000D+00  0.0000000000000D+00  0.0000000000000D+00
   319  3.1800000000000D+00  0.0000000000000D+00  0.0000000000000D+00
   320  3.1900000000000D+00  0.0000000000000D+00  0.0000000000000D+00
   321  3.2000000000000D+00  0.0000000000000D+00  0.0000000000000D+00
   322  3.2100000000000D+00  0.0000000000000D+00  0.0000000000000D+00
   323  3.2200000000000D+00  0.0000000000000D+00  0.0000000000000D+00
   324  3.2300000000000D+00  0.0000000000000D+00  0.0000000000000D+00
   325  3.2400000000000D+00  0.0000000000000D+00  0.0000000000000D+00
   326  3.2500000000000D+00  0.0000000000000D+00  0.0000000000000D+00
   327  3.2600000000000D+00  0.0000000000000D+00  0.0000000000000D+00
   328  3.2700000000000D+00  0.0000000000000D+00  0.0000000000000D+00
   329  3.2800000000000D+00  0.0000000000000D+00  0.0000000000000D+00
   330  3.2900000000000D+00  0.0000000000000D+00  0.0000000000000D+00
   331  3.3000000000000D+00  0.0000000000000D+00  0.0000000000000D+00
   332  3.3100000000000D+00  0.0000000000000D+00  0.0000000000000D+00
   333  3.3200000000000D+00  0.0000000000000D+00  0.0000000000000D+00
   334  3.3300000000000D+00  0.0000000000000D+00  0.0000000000000D+00
   335  3.3400000000000D+00  0.0000000000000D+00  0.0000000000000D+00
   336  3.3500000000000D+00  0.0000000000000D+00  0.0000000000000D+00
   337  3.3600000000000D+00  0.0000000000000D+00  0.0000000000000D+00
   338  3.3700000000000D+00  0.0000000000000D+00  0.0000000000000D+00
   339  3.3800000000000D+00  0.0000000000000D+00  0.0000000000000D+00
   340  3.3900000000000D+00  0.0000000000000D+00  0.0000000000000D+00
   341  3.4000000000000D+00  0.0000000000000D+00  0.0000000000000D+00
   342  3.4100000000000D+00  0.0000000000000D+00  0.0000000000000D+00
   343  3.4200000000000D+00  0.0000000000000D+00  0.0000000000000D+00
   344  3.4300000000000D+00  0.0000000000000D+00  0.0000000000000D+00
   345  3.4400000000000D+00  0.0000000000000D+00  0.0000000000000D+00
   346  3.4500000000000D+00  0.0000000000000D+00  0.0000000000000D+00
   347  3.4600000000000D+00  0.0000000000000D+00  0.0000000000000D+00
   348  3.4700000000000D+00  0.0000000000000D+00  0.0000000000000D+00
   349  3.4800000000000D+00  0.0000000000000D+00  0.0000000000000D+00
   350  3.4900000000000D+00  0.0000000000000D+00  0.0000000000000D+00
   351  3.5000000000000D+00  0.0000000000000D+00  0.0000000000000D+00
   352  3.5100000000000D+00  0.0000000000000D+00  0.0000000000000D+00
   353  3.5200000000000D+00  0.0000000000000D+00  0.0000000000000D+00
   354  3.5300000000000D+00  0.0000000000000D+00  0.0000000000000D+00
   355  3.5400000000000D+00  0.0000000000000D+00  0.0000000000000D+00
   356  3.5500000000000D+00  0.0000000000000D+00  0.0000000000000D+00
   357  3.5600000000000D+00  0.0000000000000D+00  0.0000000000000D+00
   358  3.5700000000000D+00  0.0000000000000D+00  0.0000000000000D+00
   359  3.5800000000000D+00  0.0000000000000D+00  0.0000000000000D+00
   360  3.5900000000000D+00  0.0000000000000D+00  0.0000000000000D+00
   361  3.6000000000000D+00  0.0000000000000D+00  0.0000000000000D+00
   362  3.6100000000000D+00  0.0000000000000D+00  0.0000000000000D+00
   363  3.6200000000000D+00  0.0000000000000D+00  0.0000000000000D+00
   364  3.6300000000000D+00  0.0000000000000D+00  0.0000000000000D+00
   365  3.6400000000000D+00  0.0000000000000D+00  0.0000000000000D+00
   366  3.6500000000000D+00  0.0000000000000D+00  0.0000000000000D+00
   367  3.6600000000000D+00  0.0000000000000D+00  0.0000000000000D+00
   368  3.6700000000000D+00  0.0000000000000D+00  0.0000000000000D+00
   369  3.6800000000000D+00  0.0000000000000D+00  0.0000000000000D+00
   370  3.6900000000000D+00  0.0000000000000D+00  0.0000000000000D+00
   371  3.7000000000000D+00  0.0000000000000D+00  0.0000000000000D+00
   372  3.7100000000000D+00  0.0000000000000D+00  0.0000000000000D+00
   373  3.7200000000000D+00  0.0000000000000D+00  0.0000000000000D+00
   374  3.7300000000000D+00  0.0000000000000D+00  0.0000000000000D+00
   375  3.7400000000000D+00  0.0000000000000D+00  0.0000000000000D+00
   376  3.7500000000000D+00  0.0000000000000D+00  0.0000000000000D+00
   377  3.7600000000000D+00  0.0000000000000D+00  0.0000000000000D+00
   378  3.7700000000000D+00  0.0000000000000D+00  0.0000000000000D+00
   379  3.7800000000000D+00  0.0000000000000D+00  0.0000000000000D+00
   380  3.7900000000000D+00  0.0000000000000D+00  0.0000000000000D+00
   381  3.8000000000000D+00  0.0000000000000D+00  0.0000000000000D+00
   382  3.8100000000000D+00  0.0000000000000D+00  0.0000000000000D+00
   383  3.8200000000000D+00  0.0000000000000D+00  0.0000000000000D+00
   384  3.8300000000000D+00  0.0000000000000D+00  0.0000000000000D+00
   385  3.8400000000000D+00  0.0000000000000D+00  0.0000000000000D+00
   386  3.8500000000000D+00  0.0000000000000D+00  0.0000000000000D+00
   387  3.8600000000000D+00  0.0000000000000D+00  0.0000000000000D+00
   388  3.8700000000000D+00  0.0000000000000D+00  0.0000000000000D+00
   389  3.8800000000000D+00  0.0000000000000D+00  0.0000000000000D+00
   390  3.8900000000000D+00  0.0000000000000D+00  0.0000000000000D+00
   391  3.9000000000000D+00  0.0000000000000D+00  0.0000000000000D+00
   392  3.9100000000000D+00  0.0000000000000D+00  0.0000000000000D+00
   393  3.9200000000000D+00  0.0000000000000D+00  0.0000000000000D+00
   394  3.9300000000000D+00  0.0000000000000D+00  0.0000000000000D+00
   395  3.9400000000000D+00  0.0000000000000D+00  0.0000000000000D+00
   396  3.9500000000000D+00  0.0000000000000D+00  0.0000000000000D+00
   397  3.9600000000000D+00  0.0000000000000D+00  0.0000000000000D+00
   398  3.9700000000000D+00  0.0000000000000D+00  0.0000000000000D+00
   399  3.9800000000000D+00  0.0000000000000D+00  0.0000000000000D+00
   400  3.9900000000000D+00  0.0000000000000D+00  0.0000000000000D+00
   401  4.0000000000000D+00  0.0000000000000D+00  0.0000000000000D+00
   402  4.0100000000000D+00  0.0000000000000D+00  0.0000000000000D+00
   403  4.0200000000000D+00  0.0000000000000D+00  0.0000000000000D+00
   404  4.0300000000000D+00  0.0000000000000D+00  0.0000000000000D+00
   405  4.0400000000000D+00  0.0000000000000D+00  0.0000000000000D+00
   406  4.0500000000000D+00  0.0000000000000D+00  0.0000000000000D+00
   407  4.0600000000000D+00  0.0000000000000D+00  0.0000000000000D+00
   408  4.0700000000000D+00  0.0000000000000D+00  0.0000000000000D+00
   409  4.0800000000000D+00  0.0000000000000D+00  0.0000000000000D+00
   410  4.0900000000000D+00  0.0000000000000D+00  0.0000000000000D+00
   411  4.1000000000000D+00  0.0000000000000D+00  0.0000000000000D+00
   412  4.1100000000000D+00  0.0000000000000D+00  0.0000000000000D+00
   413  4.1200000000000D+00  0.0000000000000D+00  0.0000000000000D+00
   414  4.1300000000000D+00  0.0000000000000D+00  0.0000000000000D+00
   415  4.1400000000000D+00  0.0000000000000D+00  0.0000000000000D+00
   416  4.1500000000000D+00  0.0000000000000D+00  0.0000000000000D+00
   417  4.1600000000000D+00  0.0000000000000D+00  0.0000000000000D+00
   418  4.1700000000000D+00  0.0000000000000D+00  0.0000000000000D+00
   419  4.1800000000000D+00  0.0000000000000D+00  0.0000000000000D+00
   420  4.1900000000000D+00  0.0000000000000D+00  0.0000000000000D+00
   421  4.2000000000000D+00  0.0000000000000D+00  0.0000000000000D+00
   422  4.2100000000000D+00  0.0000000000000D+00  0.0000000000000D+00