As    ONCVPSP-3.3.0  r_core=   1.20565   1.40789   1.60529
     33.0000     23.0000      220408    zatom,zion,pspd
     8       2   2     4   600     0    pspcod,pspxc,lmax,lloc,mmax,r2well
  5.99000000  0.00000000  0.00000000    rchrg fchrg qchrg
     2     2     2     0     0    nproj
     1     1           extension_switch
   0                         4.0735110941360D+00 -2.2042477712718D+00
     1  0.0000000000000D+00  2.0867267913616D-09  9.3001217837951D-11
     2  1.0000000000000D-02  1.0081322172795D-01  3.9718472482580D-02
     3  2.0000000000000D-02  2.0126732546923D-01  7.9431127532470D-02
     4  3.0000000000000D-02  3.0100315459544D-01  1.1913186188582D-01
     5  4.0000000000000D-02  3.9966150302736D-01  1.5881400339718D-01
     6  5.0000000000000D-02  4.9688315954903D-01  1.9847003352671D-01
     7  6.0000000000000D-02  5.9230903345981D-01  2.3809131807471D-01
     8  7.0000000000000D-02  6.8558038618617D-01  2.7766784880271D-01
     9  8.0000000000000D-02  7.7633919138767D-01  3.1718799848740D-01
    10  9.0000000000000D-02  8.6422864354384D-01  3.5663829183871D-01
    11  1.0000000000000D-01  9.4889383203667D-01  3.9600319457817D-01
    12  1.1000000000000D-01  1.0299825943947D+00  4.3526492281803D-01
    13  1.2000000000000D-01  1.1071465586896D+00  4.7440327470838D-01
    14  1.3000000000000D-01  1.1800423811303D+00  5.1339548612894D-01
    15  1.4000000000000D-01  1.2483331807485D+00  5.5221611199632D-01
    16  1.5000000000000D-01  1.3116901687706D+00  5.9083693453867D-01
    17  1.6000000000000D-01  1.3697944658992D+00  6.2922689965830D-01
    18  1.7000000000000D-01  1.4223390963491D+00  6.6735208226243D-01
    19  1.8000000000000D-01  1.4690311431674D+00  7.0517568119394D-01
    20  1.9000000000000D-01  1.5095940451865D+00  7.4265804413985D-01
    21  2.0000000000000D-01  1.5437700119834D+00  7.7975672263828D-01
    22  2.1000000000000D-01  1.5713225295129D+00  8.1642655704561D-01
    23  2.2000000000000D-01  1.5920389257108D+00  8.5261979106850D-01
    24  2.3000000000000D-01  1.6057329623907D+00  8.8828621521053D-01
    25  2.4000000000000D-01  1.6122474172305D+00  9.2337333823434D-01
    26  2.5000000000000D-01  1.6114566176220D+00  9.5782658549843D-01
    27  2.6000000000000D-01  1.6032688866752D+00  9.9158952279550D-01
    28  2.7000000000000D-01  1.5876288607650D+00  1.0246041040986D+00
    29  2.8000000000000D-01  1.5645196377131D+00  1.0568109414139D+00
    30  2.9000000000000D-01  1.5339647150252D+00  1.0881495947471D+00
    31  3.0000000000000D-01  1.4960296785722D+00  1.1185588800144D+00
    32  3.1000000000000D-01  1.4508236037061D+00  1.1479771925718D+00
    33  3.2000000000000D-01  1.3985001330369D+00  1.1763428439003D+00
    34  3.3000000000000D-01  1.3392581979466D+00  1.2035944088652D+00
    35  3.4000000000000D-01  1.2733423543474D+00  1.2296710808761D+00
    36  3.5000000000000D-01  1.2010427071847D+00  1.2545130321971D+00
    37  3.6000000000000D-01  1.1226944026741D+00  1.2780617766129D+00
    38  3.7000000000000D-01  1.0386766722183D+00  1.3002605316261D+00
    39  3.8000000000000D-01  9.4941141729200D-01  1.3210545773606D+00
    40  3.9000000000000D-01  8.5536133026008D-01  1.3403916093701D+00
    41  4.0000000000000D-01  7.5702755202609D-01  1.3582220825909D+00
    42  4.1000000000000D-01  6.5494687351456D-01  1.3744995437521D+00
    43  4.2000000000000D-01  5.4968849419613D-01  1.3891809496430D+00
    44  4.3000000000000D-01  4.4185035707629D-01  1.4022269687531D+00
    45  4.4000000000000D-01  3.3205508570351D-01  1.4136022639303D+00
    46  4.5000000000000D-01  2.2094555472007D-01  1.4232757538588D+00
    47  4.6000000000000D-01  1.0918013119196D-01  1.4312208513264D+00
    48  4.7000000000000D-01 -2.5723706738640D-03  1.4374156764394D+00
    49  4.8000000000000D-01 -1.1363797386922D-01  1.4418432431447D+00
    50  4.9000000000000D-01 -2.2334300998170D-01  1.4444916176363D+00
    51  5.0000000000000D-01 -3.3101972178313D-01  1.4453540474456D+00
    52  5.1000000000000D-01 -4.3601193792122D-01  1.4444290602565D+00
    53  5.2000000000000D-01 -5.3768075810808D-01  1.4417205317225D+00
    54  5.3000000000000D-01 -6.3541018543693D-01  1.4372377218178D+00
    55  5.4000000000000D-01 -7.2861264149047D-01  1.4309952794992D+00
    56  5.5000000000000D-01 -8.1673429976630D-01  1.4230132157105D+00
    57  5.6000000000000D-01 -8.9926017365067D-01  1.4133168450101D+00
    58  5.7000000000000D-01 -9.7571889673797D-01  1.4019366963477D+00
    59  5.8000000000000D-01 -1.0456871357073D+00  1.3889083937573D+00
    60  5.9000000000000D-01 -1.1087935792240D+00  1.3742725079660D+00
    61  6.0000000000000D-01 -1.1647224503931D+00  1.3580743801394D+00
    62  6.1000000000000D-01 -1.2132164951368D+00  1.3403639191971D+00
    63  6.2000000000000D-01 -1.2540794044040D+00  1.3211953743274D+00
    64  6.3000000000000D-01 -1.2871776343604D+00  1.3006270845120D+00
    65  6.4000000000000D-01 -1.3124415954804D+00  1.2787212070399D+00
    66  6.5000000000000D-01 -1.3298661887798D+00  1.2555434271322D+00
    67  6.6000000000000D-01 -1.3395106751588D+00  1.2311626509328D+00
    68  6.7000000000000D-01 -1.3414978718281D+00  1.2056506842237D+00
    69  6.8000000000000D-01 -1.3360126780699D+00  1.1790818993143D+00
    70  6.9000000000000D-01 -1.3232999409237D+00  1.1515328926164D+00
    71  7.0000000000000D-01 -1.3036616797460D+00  1.1230821354642D+00
    72  7.1000000000000D-01 -1.2774536967785D+00  1.0938096207544D+00
    73  7.2000000000000D-01 -1.2450816088998D+00  1.0637965079874D+00
    74  7.3000000000000D-01 -1.2069963433379D+00  1.0331247692627D+00
    75  7.4000000000000D-01 -1.1636891473157D+00  1.0018768387392D+00
    76  7.5000000000000D-01 -1.1156861682241D+00  9.7013526800640D-01
    77  7.6000000000000D-01 -1.0635426668661D+00  9.3798238972636D-01
    78  7.7000000000000D-01 -1.0078369315333D+00  9.0549999180057D-01
    79  7.8000000000000D-01 -9.4916396504828D-01  8.7276900419428D-01
    80  7.9000000000000D-01 -8.8812902037088D-01  8.3986920040988D-01
    81  8.0000000000000D-01 -8.2534106287666D-01  8.0687891544548D-01
    82  8.1000000000000D-01 -7.6140623891029D-01  7.7387478190527D-01
    83  8.2000000000000D-01 -6.9692143066785D-01  7.4093148574621D-01
    84  8.3000000000000D-01 -6.3246797685186D-01  7.0812154295278D-01
    85  8.4000000000000D-01 -5.6860563686522D-01  6.7551509822988D-01
    86  8.5000000000000D-01 -5.0586687357659D-01  6.4317974659542D-01
    87  8.6000000000000D-01 -4.4475152592641D-01  6.1118037854035D-01
    88  8.7000000000000D-01 -3.8572193788959D-01  5.7957904920681D-01
    89  8.8000000000000D-01 -3.2919860462318D-01  5.4843487181713D-01
    90  8.9000000000000D-01 -2.7555639007458D-01  5.1780393536873D-01
    91  9.0000000000000D-01 -2.2512136298916D-01  4.8773924639516D-01
    92  9.1000000000000D-01 -1.7816829022979D-01  4.5829069438280D-01
    93  9.2000000000000D-01 -1.3491881770972D-01  4.2950504022895D-01
    94  9.3000000000000D-01 -9.5540360157951D-02  4.0142592693017D-01
    95  9.4000000000000D-01 -6.0145711504760D-02  3.7409391150327D-01
    96  9.5000000000000D-01 -2.8793378022636D-02  3.4754651696583D-01
    97  9.6000000000000D-01 -1.4886266344850D-03  3.2181830303963D-01
    98  9.7000000000000D-01  2.1814769000474D-02  2.9694095409023D-01
    99  9.8000000000000D-01  4.1212111280815D-02  2.7294338268414D-01
   100  9.9000000000000D-01  5.6844726481421D-02  2.4985184702253D-01
   101  1.0000000000000D+00  6.8896322327054D-02  2.2769008041121D-01
   102  1.0100000000000D+00  7.7588808269747D-02  2.0647943084070D-01
   103  1.0200000000000D+00  8.3177638921052D-02  1.8623900868434D-01
   104  1.0300000000000D+00  8.5946747786500D-02  1.6698584047287D-01
   105  1.0400000000000D+00  8.6203144308541D-02  1.4873502667528D-01
   106  1.0500000000000D+00  8.4271251811184D-02  1.3149990140238D-01
   107  1.0600000000000D+00  8.0487068103037D-02  1.1529219195672D-01
   108  1.0700000000000D+00  7.5192232821064D-02  1.0012217617710D-01
   109  1.0800000000000D+00  6.8728087273799D-02  8.5998835566406D-02
   110  1.0900000000000D+00  6.1429812625775D-02  7.2930002256906D-02
   111  1.1000000000000D+00  5.3620731844811D-02  6.0922497925399D-02
   112  1.1100000000000D+00  4.5606858354201D-02  4.9982262879633D-02
   113  1.1200000000000D+00  3.7671771437418D-02  4.0114473626511D-02
   114  1.1300000000000D+00  3.0071893541559D-02  3.1323647364079D-02
   115  1.1400000000000D+00  2.3032240324266D-02  2.3613731943539D-02
   116  1.1500000000000D+00  1.6742707049222D-02  1.6988180007027D-02
   117  1.1600000000000D+00  1.1354948033286D-02  1.1450006144047D-02
   118  1.1700000000000D+00  6.9823601021014D-03  7.0043265372831D-03
   119  1.1800000000000D+00  3.6769886502358D-03  3.6377579865657D-03
   120  1.1900000000000D+00  1.4913329186790D-03  1.3779287677196D-03
   121  1.2000000000000D+00  4.6689055058755D-04  2.7652835646743D-04
   122  1.2100000000000D+00  1.1970830210321D-04 -2.2182430156828D-05
   123  1.2200000000000D+00  6.4804088866742D-07 -6.3955675874536D-07
   124  1.2300000000000D+00 -5.8107540257930D-06  1.0234104381742D-05
   125  1.2400000000000D+00  2.4956673469540D-06 -1.9715995086771D-06
   126  1.2500000000000D+00 -7.0471312304403D-08 -1.3154521662518D-08
   127  1.2600000000000D+00 -5.1739772850165D-07 -9.6580004049209D-08
   128  1.2700000000000D+00  0.0000000000000D+00  0.0000000000000D+00
   129  1.2800000000000D+00  0.0000000000000D+00  0.0000000000000D+00
   130  1.2900000000000D+00  0.0000000000000D+00  0.0000000000000D+00
   131  1.3000000000000D+00  0.0000000000000D+00  0.0000000000000D+00
   132  1.3100000000000D+00  0.0000000000000D+00  0.0000000000000D+00
   133  1.3200000000000D+00  0.0000000000000D+00  0.0000000000000D+00
   134  1.3300000000000D+00  0.0000000000000D+00  0.0000000000000D+00
   135  1.3400000000000D+00  0.0000000000000D+00  0.0000000000000D+00
   136  1.3500000000000D+00  0.0000000000000D+00  0.0000000000000D+00
   137  1.3600000000000D+00  0.0000000000000D+00  0.0000000000000D+00
   138  1.3700000000000D+00  0.0000000000000D+00  0.0000000000000D+00
   139  1.3800000000000D+00  0.0000000000000D+00  0.0000000000000D+00
   140  1.3900000000000D+00  0.0000000000000D+00  0.0000000000000D+00
   141  1.4000000000000D+00  0.0000000000000D+00  0.0000000000000D+00
   142  1.4100000000000D+00  0.0000000000000D+00  0.0000000000000D+00
   143  1.4200000000000D+00  0.0000000000000D+00  0.0000000000000D+00
   144  1.4300000000000D+00  0.0000000000000D+00  0.0000000000000D+00
   145  1.4400000000000D+00  0.0000000000000D+00  0.0000000000000D+00
   146  1.4500000000000D+00  0.0000000000000D+00  0.0000000000000D+00
   147  1.4600000000000D+00  0.0000000000000D+00  0.0000000000000D+00
   148  1.4700000000000D+00  0.0000000000000D+00  0.0000000000000D+00
   149  1.4800000000000D+00  0.0000000000000D+00  0.0000000000000D+00
   150  1.4900000000000D+00  0.0000000000000D+00  0.0000000000000D+00
   151  1.5000000000000D+00  0.0000000000000D+00  0.0000000000000D+00
   152  1.5100000000000D+00  0.0000000000000D+00  0.0000000000000D+00
   153  1.5200000000000D+00  0.0000000000000D+00  0.0000000000000D+00
   154  1.5300000000000D+00  0.0000000000000D+00  0.0000000000000D+00
   155  1.5400000000000D+00  0.0000000000000D+00  0.0000000000000D+00
   156  1.5500000000000D+00  0.0000000000000D+00  0.0000000000000D+00
   157  1.5600000000000D+00  0.0000000000000D+00  0.0000000000000D+00
   158  1.5700000000000D+00  0.0000000000000D+00  0.0000000000000D+00
   159  1.5800000000000D+00  0.0000000000000D+00  0.0000000000000D+00
   160  1.5900000000000D+00  0.0000000000000D+00  0.0000000000000D+00
   161  1.6000000000000D+00  0.0000000000000D+00  0.0000000000000D+00
   162  1.6100000000000D+00  0.0000000000000D+00  0.0000000000000D+00
   163  1.6200000000000D+00  0.0000000000000D+00  0.0000000000000D+00
   164  1.6300000000000D+00  0.0000000000000D+00  0.0000000000000D+00
   165  1.6400000000000D+00  0.0000000000000D+00  0.0000000000000D+00
   166  1.6500000000000D+00  0.0000000000000D+00  0.0000000000000D+00
   167  1.6600000000000D+00  0.0000000000000D+00  0.0000000000000D+00
   168  1.6700000000000D+00  0.0000000000000D+00  0.0000000000000D+00
   169  1.6800000000000D+00  0.0000000000000D+00  0.0000000000000D+00
   170  1.6900000000000D+00  0.0000000000000D+00  0.0000000000000D+00
   171  1.7000000000000D+00  0.0000000000000D+00  0.0000000000000D+00
   172  1.7100000000000D+00  0.0000000000000D+00  0.0000000000000D+00
   173  1.7200000000000D+00  0.0000000000000D+00  0.0000000000000D+00
   174  1.7300000000000D+00  0.0000000000000D+00  0.0000000000000D+00
   175  1.7400000000000D+00  0.0000000000000D+00  0.0000000000000D+00
   176  1.7500000000000D+00  0.0000000000000D+00  0.0000000000000D+00
   177  1.7600000000000D+00  0.0000000000000D+00  0.0000000000000D+00
   178  1.7700000000000D+00  0.0000000000000D+00  0.0000000000000D+00
   179  1.7800000000000D+00  0.0000000000000D+00  0.0000000000000D+00
   180  1.7900000000000D+00  0.0000000000000D+00  0.0000000000000D+00
   181  1.8000000000000D+00  0.0000000000000D+00  0.0000000000000D+00
   182  1.8100000000000D+00  0.0000000000000D+00  0.0000000000000D+00
   183  1.8200000000000D+00  0.0000000000000D+00  0.0000000000000D+00
   184  1.8300000000000D+00  0.0000000000000D+00  0.0000000000000D+00
   185  1.8400000000000D+00  0.0000000000000D+00  0.0000000000000D+00
   186  1.8500000000000D+00  0.0000000000000D+00  0.0000000000000D+00
   187  1.8600000000000D+00  0.0000000000000D+00  0.0000000000000D+00
   188  1.8700000000000D+00  0.0000000000000D+00  0.0000000000000D+00
   189  1.8800000000000D+00  0.0000000000000D+00  0.0000000000000D+00
   190  1.8900000000000D+00  0.0000000000000D+00  0.0000000000000D+00
   191  1.9000000000000D+00  0.0000000000000D+00  0.0000000000000D+00
   192  1.9100000000000D+00  0.0000000000000D+00  0.0000000000000D+00
   193  1.9200000000000D+00  0.0000000000000D+00  0.0000000000000D+00
   194  1.9300000000000D+00  0.0000000000000D+00  0.0000000000000D+00
   195  1.9400000000000D+00  0.0000000000000D+00  0.0000000000000D+00
   196  1.9500000000000D+00  0.0000000000000D+00  0.0000000000000D+00
   197  1.9600000000000D+00  0.0000000000000D+00  0.0000000000000D+00
   198  1.9700000000000D+00  0.0000000000000D+00  0.0000000000000D+00
   199  1.9800000000000D+00  0.0000000000000D+00  0.0000000000000D+00
   200  1.9900000000000D+00  0.0000000000000D+00  0.0000000000000D+00
   201  2.0000000000000D+00  0.0000000000000D+00  0.0000000000000D+00
   202  2.0100000000000D+00  0.0000000000000D+00  0.0000000000000D+00
   203  2.0200000000000D+00  0.0000000000000D+00  0.0000000000000D+00
   204  2.0300000000000D+00  0.0000000000000D+00  0.0000000000000D+00
   205  2.0400000000000D+00  0.0000000000000D+00  0.0000000000000D+00
   206  2.0500000000000D+00  0.0000000000000D+00  0.0000000000000D+00
   207  2.0600000000000D+00  0.0000000000000D+00  0.0000000000000D+00
   208  2.0700000000000D+00  0.0000000000000D+00  0.0000000000000D+00
   209  2.0800000000000D+00  0.0000000000000D+00  0.0000000000000D+00
   210  2.0900000000000D+00  0.0000000000000D+00  0.0000000000000D+00
   211  2.1000000000000D+00  0.0000000000000D+00  0.0000000000000D+00
   212  2.1100000000000D+00  0.0000000000000D+00  0.0000000000000D+00
   213  2.1200000000000D+00  0.0000000000000D+00  0.0000000000000D+00
   214  2.1300000000000D+00  0.0000000000000D+00  0.0000000000000D+00
   215  2.1400000000000D+00  0.0000000000000D+00  0.0000000000000D+00
   216  2.1500000000000D+00  0.0000000000000D+00  0.0000000000000D+00
   217  2.1600000000000D+00  0.0000000000000D+00  0.0000000000000D+00
   218  2.1700000000000D+00  0.0000000000000D+00  0.0000000000000D+00
   219  2.1800000000000D+00  0.0000000000000D+00  0.0000000000000D+00
   220  2.1900000000000D+00  0.0000000000000D+00  0.0000000000000D+00
   221  2.2000000000000D+00  0.0000000000000D+00  0.0000000000000D+00
   222  2.2100000000000D+00  0.0000000000000D+00  0.0000000000000D+00
   223  2.2200000000000D+00  0.0000000000000D+00  0.0000000000000D+00
   224  2.2300000000000D+00  0.0000000000000D+00  0.0000000000000D+00
   225  2.2400000000000D+00  0.0000000000000D+00  0.0000000000000D+00
   226  2.2500000000000D+00  0.0000000000000D+00  0.0000000000000D+00
   227  2.2600000000000D+00  0.0000000000000D+00  0.0000000000000D+00
   228  2.2700000000000D+00  0.0000000000000D+00  0.0000000000000D+00
   229  2.2800000000000D+00  0.0000000000000D+00  0.0000000000000D+00
   230  2.2900000000000D+00  0.0000000000000D+00  0.0000000000000D+00
   231  2.3000000000000D+00  0.0000000000000D+00  0.0000000000000D+00
   232  2.3100000000000D+00  0.0000000000000D+00  0.0000000000000D+00
   233  2.3200000000000D+00  0.0000000000000D+00  0.0000000000000D+00
   234  2.3300000000000D+00  0.0000000000000D+00  0.0000000000000D+00
   235  2.3400000000000D+00  0.0000000000000D+00  0.0000000000000D+00
   236  2.3500000000000D+00  0.0000000000000D+00  0.0000000000000D+00
   237  2.3600000000000D+00  0.0000000000000D+00  0.0000000000000D+00
   238  2.3700000000000D+00  0.0000000000000D+00  0.0000000000000D+00
   239  2.3800000000000D+00  0.0000000000000D+00  0.0000000000000D+00
   240  2.3900000000000D+00  0.0000000000000D+00  0.0000000000000D+00
   241  2.4000000000000D+00  0.0000000000000D+00  0.0000000000000D+00
   242  2.4100000000000D+00  0.0000000000000D+00  0.0000000000000D+00
   243  2.4200000000000D+00  0.0000000000000D+00  0.0000000000000D+00
   244  2.4300000000000D+00  0.0000000000000D+00  0.0000000000000D+00
   245  2.4400000000000D+00  0.0000000000000D+00  0.0000000000000D+00
   246  2.4500000000000D+00  0.0000000000000D+00  0.0000000000000D+00
   247  2.4600000000000D+00  0.0000000000000D+00  0.0000000000000D+00
   248  2.4700000000000D+00  0.0000000000000D+00  0.0000000000000D+00
   249  2.4800000000000D+00  0.0000000000000D+00  0.0000000000000D+00
   250  2.4900000000000D+00  0.0000000000000D+00  0.0000000000000D+00
   251  2.5000000000000D+00  0.0000000000000D+00  0.0000000000000D+00
   252  2.5100000000000D+00  0.0000000000000D+00  0.0000000000000D+00
   253  2.5200000000000D+00  0.0000000000000D+00  0.0000000000000D+00
   254  2.5300000000000D+00  0.0000000000000D+00  0.0000000000000D+00
   255  2.5400000000000D+00  0.0000000000000D+00  0.0000000000000D+00
   256  2.5500000000000D+00  0.0000000000000D+00  0.0000000000000D+00
   257  2.5600000000000D+00  0.0000000000000D+00  0.0000000000000D+00
   258  2.5700000000000D+00  0.0000000000000D+00  0.0000000000000D+00
   259  2.5800000000000D+00  0.0000000000000D+00  0.0000000000000D+00
   260  2.5900000000000D+00  0.0000000000000D+00  0.0000000000000D+00
   261  2.6000000000000D+00  0.0000000000000D+00  0.0000000000000D+00
   262  2.6100000000000D+00  0.0000000000000D+00  0.0000000000000D+00
   263  2.6200000000000D+00  0.0000000000000D+00  0.0000000000000D+00
   264  2.6300000000000D+00  0.0000000000000D+00  0.0000000000000D+00
   265  2.6400000000000D+00  0.0000000000000D+00  0.0000000000000D+00
   266  2.6500000000000D+00  0.0000000000000D+00  0.0000000000000D+00
   267  2.6600000000000D+00  0.0000000000000D+00  0.0000000000000D+00
   268  2.6700000000000D+00  0.0000000000000D+00  0.0000000000000D+00
   269  2.6800000000000D+00  0.0000000000000D+00  0.0000000000000D+00
   270  2.6900000000000D+00  0.0000000000000D+00  0.0000000000000D+00
   271  2.7000000000000D+00  0.0000000000000D+00  0.0000000000000D+00
   272  2.7100000000000D+00  0.0000000000000D+00  0.0000000000000D+00
   273  2.7200000000000D+00  0.0000000000000D+00  0.0000000000000D+00
   274  2.7300000000000D+00  0.0000000000000D+00  0.0000000000000D+00
   275  2.7400000000000D+00  0.0000000000000D+00  0.0000000000000D+00
   276  2.7500000000000D+00  0.0000000000000D+00  0.0000000000000D+00
   277  2.7600000000000D+00  0.0000000000000D+00  0.0000000000000D+00
   278  2.7700000000000D+00  0.0000000000000D+00  0.0000000000000D+00
   279  2.7800000000000D+00  0.0000000000000D+00  0.0000000000000D+00
   280  2.7900000000000D+00  0.0000000000000D+00  0.0000000000000D+00
   281  2.8000000000000D+00  0.0000000000000D+00  0.0000000000000D+00
   282  2.8100000000000D+00  0.0000000000000D+00  0.0000000000000D+00
   283  2.8200000000000D+00  0.0000000000000D+00  0.0000000000000D+00
   284  2.8300000000000D+00  0.0000000000000D+00  0.0000000000000D+00
   285  2.8400000000000D+00  0.0000000000000D+00  0.0000000000000D+00
   286  2.8500000000000D+00  0.0000000000000D+00  0.0000000000000D+00
   287  2.8600000000000D+00  0.0000000000000D+00  0.0000000000000D+00
   288  2.8700000000000D+00  0.0000000000000D+00  0.0000000000000D+00
   289  2.8800000000000D+00  0.0000000000000D+00  0.0000000000000D+00
   290  2.8900000000000D+00  0.0000000000000D+00  0.0000000000000D+00
   291  2.9000000000000D+00  0.0000000000000D+00  0.0000000000000D+00
   292  2.9100000000000D+00  0.0000000000000D+00  0.0000000000000D+00
   293  2.9200000000000D+00  0.0000000000000D+00  0.0000000000000D+00
   294  2.9300000000000D+00  0.0000000000000D+00  0.0000000000000D+00
   295  2.9400000000000D+00  0.0000000000000D+00  0.0000000000000D+00
   296  2.9500000000000D+00  0.0000000000000D+00  0.0000000000000D+00
   297  2.9600000000000D+00  0.0000000000000D+00  0.0000000000000D+00
   298  2.9700000000000D+00  0.0000000000000D+00  0.0000000000000D+00
   299  2.9800000000000D+00  0.0000000000000D+00  0.0000000000000D+00
   300  2.9900000000000D+00  0.0000000000000D+00  0.0000000000000D+00
   301  3.0000000000000D+00  0.0000000000000D+00  0.0000000000000D+00
   302  3.0100000000000D+00  0.0000000000000D+00  0.0000000000000D+00
   303  3.0200000000000D+00  0.0000000000000D+00  0.0000000000000D+00
   304  3.0300000000000D+00  0.0000000000000D+00  0.0000000000000D+00
   305  3.0400000000000D+00  0.0000000000000D+00  0.0000000000000D+00
   306  3.0500000000000D+00  0.0000000000000D+00  0.0000000000000D+00
   307  3.0600000000000D+00  0.0000000000000D+00  0.0000000000000D+00
   308  3.0700000000000D+00  0.0000000000000D+00  0.0000000000000D+00
   309  3.0800000000000D+00  0.0000000000000D+00  0.0000000000000D+00
   310  3.0900000000000D+00  0.0000000000000D+00  0.0000000000000D+00
   311  3.1000000000000D+00  0.0000000000000D+00  0.0000000000000D+00
   312  3.1100000000000D+00  0.0000000000000D+00  0.0000000000000D+00
   313  3.1200000000000D+00  0.0000000000000D+00  0.0000000000000D+00
   314  3.1300000000000D+00  0.0000000000000D+00  0.0000000000000D+00
   315  3.1400000000000D+00  0.0000000000000D+00  0.0000000000000D+00
   316  3.1500000000000D+00  0.0000000000000D+00  0.0000000000000D+00
   317  3.1600000000000D+00  0.0000000000000D+00  0.0000000000000D+00
   318  3.1700000000000D+00  0.0000000000000D+00  0.0000000000000D+00
   319  3.1800000000000D+00  0.0000000000000D+00  0.0000000000000D+00
   320  3.1900000000000D+00  0.0000000000000D+00  0.0000000000000D+00
   321  3.2000000000000D+00  0.0000000000000D+00  0.0000000000000D+00
   322  3.2100000000000D+00  0.0000000000000D+00  0.0000000000000D+00
   323  3.2200000000000D+00  0.0000000000000D+00  0.0000000000000D+00
   324  3.2300000000000D+00  0.0000000000000D+00  0.0000000000000D+00
   325  3.2400000000000D+00  0.0000000000000D+00  0.0000000000000D+00
   326  3.2500000000000D+00  0.0000000000000D+00  0.0000000000000D+00
   327  3.2600000000000D+00  0.0000000000000D+00  0.0000000000000D+00
   328  3.2700000000000D+00  0.0000000000000D+00  0.0000000000000D+00
   329  3.2800000000000D+00  0.0000000000000D+00  0.0000000000000D+00
   330  3.2900000000000D+00  0.0000000000000D+00  0.0000000000000D+00
   331  3.3000000000000D+00  0.0000000000000D+00  0.0000000000000D+00
   332  3.3100000000000D+00  0.0000000000000D+00  0.0000000000000D+00
   333  3.3200000000000D+00  0.0000000000000D+00  0.0000000000000D+00
   334  3.3300000000000D+00  0.0000000000000D+00  0.0000000000000D+00
   335  3.3400000000000D+00  0.0000000000000D+00  0.0000000000000D+00
   336  3.3500000000000D+00  0.0000000000000D+00  0.0000000000000D+00
   337  3.3600000000000D+00  0.0000000000000D+00  0.0000000000000D+00
   338  3.3700000000000D+00  0.0000000000000D+00  0.0000000000000D+00
   339  3.3800000000000D+00  0.0000000000000D+00  0.0000000000000D+00
   340  3.3900000000000D+00  0.0000000000000D+00  0.0000000000000D+00
   341  3.4000000000000D+00  0.0000000000000D+00  0.0000000000000D+00
   342  3.4100000000000D+00  0.0000000000000D+00  0.0000000000000D+00
   343  3.4200000000000D+00  0.0000000000000D+00  0.0000000000000D+00
   344  3.4300000000000D+00  0.0000000000000D+00  0.0000000000000D+00
   345  3.4400000000000D+00  0.0000000000000D+00  0.0000000000000D+00
   346  3.4500000000000D+00  0.0000000000000D+00  0.0000000000000D+00
   347  3.4600000000000D+00  0.0000000000000D+00  0.0000000000000D+00
   348  3.4700000000000D+00  0.0000000000000D+00  0.0000000000000D+00
   349  3.4800000000000D+00  0.0000000000000D+00  0.0000000000000D+00
   350  3.4900000000000D+00  0.0000000000000D+00  0.0000000000000D+00
   351  3.5000000000000D+00  0.0000000000000D+00  0.0000000000000D+00
   352  3.5100000000000D+00  0.0000000000000D+00  0.0000000000000D+00
   353  3.5200000000000D+00  0.0000000000000D+00  0.0000000000000D+00
   354  3.5300000000000D+00  0.0000000000000D+00  0.0000000000000D+00
   355  3.5400000000000D+00  0.0000000000000D+00  0.0000000000000D+00
   356  3.5500000000000D+00  0.0000000000000D+00  0.0000000000000D+00
   357  3.5600000000000D+00  0.0000000000000D+00  0.0000000000000D+00
   358  3.5700000000000D+00  0.0000000000000D+00  0.0000000000000D+00
   359  3.5800000000000D+00  0.0000000000000D+00  0.0000000000000D+00
   360  3.5900000000000D+00  0.0000000000000D+00  0.0000000000000D+00
   361  3.6000000000000D+00  0.0000000000000D+00  0.0000000000000D+00
   362  3.6100000000000D+00  0.0000000000000D+00  0.0000000000000D+00
   363  3.6200000000000D+00  0.0000000000000D+00  0.0000000000000D+00
   364  3.6300000000000D+00  0.0000000000000D+00  0.0000000000000D+00
   365  3.6400000000000D+00  0.0000000000000D+00  0.0000000000000D+00
   366  3.6500000000000D+00  0.0000000000000D+00  0.0000000000000D+00
   367  3.6600000000000D+00  0.0000000000000D+00  0.0000000000000D+00
   368  3.6700000000000D+00  0.0000000000000D+00  0.0000000000000D+00
   369  3.6800000000000D+00  0.0000000000000D+00  0.0000000000000D+00
   370  3.6900000000000D+00  0.0000000000000D+00  0.0000000000000D+00
   371  3.7000000000000D+00  0.0000000000000D+00  0.0000000000000D+00
   372  3.7100000000000D+00  0.0000000000000D+00  0.0000000000000D+00
   373  3.7200000000000D+00  0.0000000000000D+00  0.0000000000000D+00
   374  3.7300000000000D+00  0.0000000000000D+00  0.0000000000000D+00
   375  3.7400000000000D+00  0.0000000000000D+00  0.0000000000000D+00
   376  3.7500000000000D+00  0.0000000000000D+00  0.0000000000000D+00
   377  3.7600000000000D+00  0.0000000000000D+00  0.0000000000000D+00
   378  3.7700000000000D+00  0.0000000000000D+00  0.0000000000000D+00
   379  3.7800000000000D+00  0.0000000000000D+00  0.0000000000000D+00
   380  3.7900000000000D+00  0.0000000000000D+00  0.0000000000000D+00
   381  3.8000000000000D+00  0.0000000000000D+00  0.0000000000000D+00
   382  3.8100000000000D+00  0.0000000000000D+00  0.0000000000000D+00
   383  3.8200000000000D+00  0.0000000000000D+00  0.0000000000000D+00
   384  3.8300000000000D+00  0.0000000000000D+00  0.0000000000000D+00
   385  3.8400000000000D+00  0.0000000000000D+00  0.0000000000000D+00
   386  3.8500000000000D+00  0.0000000000000D+00  0.0000000000000D+00
   387  3.8600000000000D+00  0.0000000000000D+00  0.0000000000000D+00
   388  3.8700000000000D+00  0.0000000000000D+00  0.0000000000000D+00
   389  3.8800000000000D+00  0.0000000000000D+00  0.0000000000000D+00
   390  3.8900000000000D+00  0.0000000000000D+00  0.0000000000000D+00
   391  3.9000000000000D+00  0.0000000000000D+00  0.0000000000000D+00
   392  3.9100000000000D+00  0.0000000000000D+00  0.0000000000000D+00
   393  3.9200000000000D+00  0.0000000000000D+00  0.0000000000000D+00
   394  3.9300000000000D+00  0.0000000000000D+00  0.0000000000000D+00
   395  3.9400000000000D+00  0.0000000000000D+00  0.0000000000000D+00
   396  3.9500000000000D+00  0.0000000000000D+00  0.0000000000000D+00
   397  3.9600000000000D+00  0.0000000000000D+00  0.0000000000000D+00
   398  3.9700000000000D+00  0.0000000000000D+00  0.0000000000000D+00
   399  3.9800000000000D+00  0.0000000000000D+00  0.0000000000000D+00
   400  3.9900000000000D+00  0.0000000000000D+00  0.0000000000000D+00
   401  4.0000000000000D+00  0.0000000000000D+00  0.0000000000000D+00
   402  4.0100000000000D+00  0.0000000000000D+00  0.0000000000000D+00
   403  4.0200000000000D+00  0.0000000000000D+00  0.0000000000000D+00
   404  4.0300000000000D+00  0.0000000000000D+00  0.0000000000000D+00
   405  4.0400000000000D+00  0.0000000000000D+00  0.0000000000000D+00
   406  4.0500000000000D+00  0.0000000000000D+00  0.0000000000000D+00
   407  4.0600000000000D+00  0.0000000000000D+00  0.0000000000000D+00
   408  4.0700000000000D+00  0.0000000000000D+00  0.0000000000000D+00
   409  4.0800000000000D+00  0.0000000000000D+00  0.0000000000000D+00
   410  4.0900000000000D+00  0.0000000000000D+00  0.0000000000000D+00
   411  4.1000000000000D+00  0.0000000000000D+00  0.0000000000000D+00
   412  4.1100000000000D+00  0.0000000000000D+00  0.0000000000000D+00
   413  4.1200000000000D+00  0.0000000000000D+00  0.0000000000000D+00
   414  4.1300000000000D+00  0.0000000000000D+00  0.0000000000000D+00
   415  4.1400000000000D+00  0.0000000000000D+00  0.0000000000000D+00
   416  4.1500000000000D+00  0.0000000000000D+00  0.0000000000000D+00
   417  4.1600000000000D+00  0.0000000000000D+00  0.0000000000000D+00
   418  4.1700000000000D+00  0.0000000000000D+00  0.0000000000000D+00
   419  4.1800000000000D+00  0.0000000000000D+00  0.0000000000000D+00
   420  4.1900000000000D+00  0.0000000000000D+00  0.0000000000000D+00
   421  4.2000000000000D+00  0.0000000000000D+00  0.0000000000000D+00
   422  4.2100000000000D+00  0.0000000000000D+00  0.0000000000000D+00