As    ONCVPSP-3.3.0  r_core=   1.85233   1.80867   2.40819
     33.0000      5.0000      220408    zatom,zion,pspd
     8       2   2     4   600     0    pspcod,pspxc,lmax,lloc,mmax,r2well
  5.99000000  0.00000000  0.00000000    rchrg fchrg qchrg
     2     2     2     0     0    nproj
     1     1           extension_switch
   0                         8.4938137890191D+00  9.0639158476514D-01
     1  0.0000000000000D+00 -1.5544809883750D-10  1.5228460159555D-10
     2  1.0000000000000D-02  3.7305684819149D-02 -1.9879352739919D-02
     3  2.0000000000000D-02  7.4576393246514D-02 -3.9721154319106D-02
     4  3.0000000000000D-02  1.1177733900685D-01 -5.9488014873284D-02
     5  4.0000000000000D-02  1.4887411318116D-01 -7.9142864503301D-02
     6  5.0000000000000D-02  1.8583286573280D-01 -9.8649106727556D-02
     7  6.0000000000000D-02  2.2262047856309D-01 -1.1797076420786D-01
     8  7.0000000000000D-02  2.5920472745764D-01 -1.3707261435430D-01
     9  8.0000000000000D-02  2.9555443044035D-01 -1.5592031256697D-01
    10  9.0000000000000D-02  3.3163958024222D-01 -1.7448050105881D-01
    11  1.0000000000000D-01  3.6743145881537D-01 -1.9272090142214D-01
    12  1.1000000000000D-01  4.0290273207581D-01 -2.1061038934898D-01
    13  1.2000000000000D-01  4.3802752333768D-01 -2.2811905018796D-01
    14  1.3000000000000D-01  4.7278146420419D-01 -2.4521821431604D-01
    15  1.4000000000000D-01  5.0714172200214D-01 -2.6188047161666D-01
    16  1.5000000000000D-01  5.4108700318287D-01 -2.7807966468324D-01
    17  1.6000000000000D-01  5.7459753245980D-01 -2.9379086070415D-01
    18  1.7000000000000D-01  6.0765500780499D-01 -3.0899030232779D-01
    19  1.8000000000000D-01  6.4024253178212D-01 -3.2365533814908D-01
    20  1.9000000000000D-01  6.7234452004361D-01 -3.3776433379751D-01
    21  2.0000000000000D-01  7.0394658816321D-01 -3.5129656493710D-01
    22  2.1000000000000D-01  7.3503541830589D-01 -3.6423209380539D-01
    23  2.2000000000000D-01  7.6559860755074D-01 -3.7655163121743D-01
    24  2.3000000000000D-01  7.9562449997525D-01 -3.8823638623817D-01
    25  2.4000000000000D-01  8.2510200487731D-01 -3.9926790597757D-01
    26  2.5000000000000D-01  8.5402040374983D-01 -4.0962790818450D-01
    27  2.6000000000000D-01  8.8236914882994D-01 -4.1929810950360D-01
    28  2.7000000000000D-01  9.1013765621626D-01 -4.2826005241221D-01
    29  2.8000000000000D-01  9.3731509668173D-01 -4.3649493396806D-01
    30  2.9000000000000D-01  9.6389018740384D-01 -4.4398343957187D-01
    31  3.0000000000000D-01  9.8985098788678D-01 -4.5070558498007D-01
    32  3.1000000000000D-01  1.0151847033606D+00 -4.5664056979036D-01
    33  3.2000000000000D-01  1.0398774989094D+00 -4.6176664556692D-01
    34  3.3000000000000D-01  1.0639143275051D+00 -4.6606100167169D-01
    35  3.4000000000000D-01  1.0872787750046D+00 -4.6949967172493D-01
    36  3.5000000000000D-01  1.1099529250079D+00 -4.7205746343213D-01
    37  3.6000000000000D-01  1.1319172462743D+00 -4.7370791428822D-01
    38  3.7000000000000D-01  1.1531505051571D+00 -4.7442327540466D-01
    39  3.8000000000000D-01  1.1736297052398D+00 -4.7417452540430D-01
    40  3.9000000000000D-01  1.1933300560560D+00 -4.7293141599497D-01
    41  4.0000000000000D-01  1.2122249724342D+00 -4.7066255047009D-01
    42  4.1000000000000D-01  1.2302861056523D+00 -4.6733549599584D-01
    43  4.2000000000000D-01  1.2474834072047D+00 -4.6291693013620D-01
    44  4.3000000000000D-01  1.2637852255834D+00 -4.5737282164070D-01
    45  4.4000000000000D-01  1.2791584360705D+00 -4.5066864508406D-01
    46  4.5000000000000D-01  1.2935686031174D+00 -4.4276962850292D-01
    47  4.6000000000000D-01  1.3069801744709D+00 -4.3364103273163D-01
    48  4.7000000000000D-01  1.3193567057892D+00 -4.2324846069891D-01
    49  4.8000000000000D-01  1.3306611140849D+00 -4.1155819451752D-01
    50  4.9000000000000D-01  1.3408559579395D+00 -3.9853755778407D-01
    51  5.0000000000000D-01  1.3499037420557D+00 -3.8415530011154D-01
    52  5.1000000000000D-01  1.3577672433658D+00 -3.6838200054761D-01
    53  5.2000000000000D-01  1.3644098555886D+00 -3.5119048619304D-01
    54  5.3000000000000D-01  1.3697959488356D+00 -3.3255626202923D-01
    55  5.4000000000000D-01  1.3738912406106D+00 -3.1245794769916D-01
    56  5.5000000000000D-01  1.3766631743321D+00 -2.9087771676215D-01
    57  5.6000000000000D-01  1.3780813013328D+00 -2.6780173376640D-01
    58  5.7000000000000D-01  1.3781176621606D+00 -2.4322058435456D-01
    59  5.8000000000000D-01  1.3767471629268D+00 -2.1712969354103D-01
    60  5.9000000000000D-01  1.3739479424129D+00 -1.8952972727486D-01
    61  6.0000000000000D-01  1.3697017256633D+00 -1.6042697243244D-01
    62  6.1000000000000D-01  1.3639941598608D+00 -1.2983369046877D-01
    63  6.2000000000000D-01  1.3568151283970D+00 -9.7768440094153D-02
    64  6.3000000000000D-01  1.3481590392173D+00 -6.4256364537497D-02
    65  6.4000000000000D-01  1.3380250837319D+00 -2.9329439201390D-02
    66  6.5000000000000D-01  1.3264174628471D+00  6.9733241895203D-03
    67  6.6000000000000D-01  1.3133455769695D+00  4.4605720500547D-02
    68  6.7000000000000D-01  1.2988241771828D+00  8.3514244326035D-02
    69  6.8000000000000D-01  1.2828734751725D+00  1.2363803609057D-01
    70  6.9000000000000D-01  1.2655192098869D+00  1.6490888338111D-01
    71  7.0000000000000D-01  1.2467926693635D+00  2.0725127927835D-01
    72  7.1000000000000D-01  1.2267306666077D+00  2.5058253893155D-01
    73  7.2000000000000D-01  1.2053754688966D+00  2.9481297506895D-01
    74  7.3000000000000D-01  1.1827746803700D+00  3.3984613257359D-01
    75  7.4000000000000D-01  1.1589810782696D+00  3.8557908167848D-01
    76  7.5000000000000D-01  1.1340524036911D+00  4.3190276875617D-01
    77  7.6000000000000D-01  1.1080511082071D+00  4.7870242310169D-01
    78  7.7000000000000D-01  1.0810440582036D+00  5.2585801753893D-01
    79  7.8000000000000D-01  1.0531021992446D+00  5.7324478012728D-01
    80  7.9000000000000D-01  1.0243001832246D+00  6.2073375371310D-01
    81  8.0000000000000D-01  9.9471596148780D-01  6.6819239956487D-01
    82  8.1000000000000D-01  9.6443034748395D-01  7.1548524085785D-01
    83  8.2000000000000D-01  9.3352655287794D-01  7.6247454133879D-01
    84  8.3000000000000D-01  9.0208970134222D-01  8.0902101410924D-01
    85  8.4000000000000D-01  8.7020632452448D-01  8.5498455512136D-01
    86  8.5000000000000D-01  8.3796384489907D-01  9.0022499568689D-01
    87  8.6000000000000D-01  8.0545005037522D-01  9.4460286806192D-01
    88  8.7000000000000D-01  7.7275256564606D-01  9.8798017799013D-01
    89  8.8000000000000D-01  7.3995832531832D-01  1.0302211779672D+00
    90  8.9000000000000D-01  7.0715305386228D-01  1.0711931349314D+00
    91  9.0000000000000D-01  6.7442075736498D-01  1.1107670860897D+00
    92  9.1000000000000D-01  6.4184323195688D-01  1.1488185766579D+00
    93  9.2000000000000D-01  6.0949959361459D-01  1.1852283734218D+00
    94  9.3000000000000D-01  5.7746583382116D-01  1.2198831482217D+00
    95  9.4000000000000D-01  5.4581440529344D-01  1.2526761257102D+00
    96  9.5000000000000D-01  5.1461384166601D-01  1.2835076900458D+00
    97  9.6000000000000D-01  4.8392841465748D-01  1.3122859455439D+00
    98  9.7000000000000D-01  4.5381783183432D-01  1.3389272267273D+00
    99  9.8000000000000D-01  4.2433697765898D-01  1.3633565536627D+00
   100  9.9000000000000D-01  3.9553570002355D-01  1.3855080289852D+00
   101  1.0000000000000D+00  3.6745864398032D-01  1.4053251735381D+00
   102  1.0100000000000D+00  3.4014513386267D-01  1.4227611981256D+00
   103  1.0200000000000D+00  3.1362910445870D-01  1.4377792094599D+00
   104  1.0300000000000D+00  2.8793908136301D-01  1.4503523489959D+00
   105  1.0400000000000D+00  2.6309821007942D-01  1.4604638639732D+00
   106  1.0500000000000D+00  2.3912433295265D-01  1.4681071105661D+00
   107  1.0600000000000D+00  2.1603011242868D-01  1.4732854897222D+00
   108  1.0700000000000D+00  1.9382319867968D-01  1.4760123168341D+00
   109  1.0800000000000D+00  1.7250643913408D-01  1.4763106269975D+00
   110  1.0900000000000D+00  1.5207812698200D-01  1.4742129182076D+00
   111  1.1000000000000D+00  1.3253228536757D-01  1.4697608353078D+00
   112  1.1100000000000D+00  1.1385898351840D-01  1.4630047981282D+00
   113  1.1200000000000D+00  9.6044680792212D-02  1.4540035776349D+00
   114  1.1300000000000D+00  7.9072594301747D-02  1.4428238243892D+00
   115  1.1400000000000D+00  6.2923085579139D-02  1.4295395539375D+00
   116  1.1500000000000D+00  4.7574061518814D-02  1.4142315941384D+00
   117  1.1600000000000D+00  3.3001384739157D-02  1.3969869996752D+00
   118  1.1700000000000D+00  1.9179288450834D-02  1.3778984392106D+00
   119  1.1800000000000D+00  6.0807908873286D-03  1.3570635607780D+00
   120  1.1900000000000D+00 -6.3218955864770D-03  1.3345843411414D+00
   121  1.2000000000000D+00 -1.8056965439554D-02  1.3105664248341D+00
   122  1.2100000000000D+00 -2.9152635593921D-02  1.2851184585559D+00
   123  1.2200000000000D+00 -3.9636780134996D-02  1.2583514265735D+00
   124  1.2300000000000D+00 -4.9536588163934D-02  1.2303779925562D+00
   125  1.2400000000000D+00 -5.8878248480228D-02  1.2013118530055D+00
   126  1.2500000000000D+00 -6.7686664703532D-02  1.1712671074241D+00
   127  1.2600000000000D+00 -7.5985203663851D-02  1.1403576497747D+00
   128  1.2700000000000D+00 -8.3795479521647D-02  1.1086965854497D+00
   129  1.2800000000000D+00 -9.1137175974370D-02  1.0763956779176D+00
   130  1.2900000000000D+00 -9.8027907897597D-02  1.0435648283446D+00
   131  1.3000000000000D+00 -1.0448312334062D-01  1.0103115910665D+00
   132  1.3100000000000D+00 -1.1051604683229D-01  9.7674072785419D-01
   133  1.3200000000000D+00 -1.1613766358546D-01  9.4295380263284D-01
   134  1.3300000000000D+00 -1.2135674403922D-01  9.0904881811656D-01
   135  1.3400000000000D+00 -1.2617990810762D-01  8.7511989580948D-01
   136  1.3500000000000D+00 -1.3061172698551D-01  8.4125699925801D-01
   137  1.3600000000000D+00 -1.3465486074065D-01  8.0754570079209D-01
   138  1.3700000000000D+00 -1.3831022927457D-01  7.7406699137640D-01
   139  1.3800000000000D+00 -1.4157721322799D-01  7.4089713199256D-01
   140  1.3900000000000D+00 -1.4445388202894D-01  7.0810754571223D-01
   141  1.4000000000000D+00 -1.4693724498271D-01  6.7576474812087D-01
   142  1.4100000000000D+00 -1.4902352147768D-01  6.4393031379211D-01
   143  1.4200000000000D+00 -1.5070842626170D-01  6.1266087657582D-01
   144  1.4300000000000D+00 -1.5198746499642D-01  5.8200816013510D-01
   145  1.4400000000000D+00 -1.5285623583823D-01  5.5201903609531D-01
   146  1.4500000000000D+00 -1.5331073209524D-01  5.2273560599033D-01
   147  1.4600000000000D+00 -1.5334764157337D-01  4.9419530363322D-01
   148  1.4700000000000D+00 -1.5296463756356D-01  4.6643101414927D-01
   149  1.4800000000000D+00 -1.5216065751587D-01  4.3947120601528D-01
   150  1.4900000000000D+00 -1.5093616429386D-01  4.1334007225957D-01
   151  1.5000000000000D+00 -1.4929338653692D-01  3.8805767729277D-01
   152  1.5100000000000D+00 -1.4723653381702D-01  3.6364010575542D-01
   153  1.5200000000000D+00 -1.4477198295146D-01  3.4009960980648D-01
   154  1.5300000000000D+00 -1.4190843299154D-01  3.1744475219164D-01
   155  1.5400000000000D+00 -1.3865702457196D-01  2.9568054109092D-01
   156  1.5500000000000D+00 -1.3503142351647D-01  2.7480855497518D-01
   157  1.5600000000000D+00 -1.3104786387859D-01  2.5482705397036D-01
   158  1.5700000000000D+00 -1.2672515305334D-01  2.3573108064698D-01
   159  1.5800000000000D+00 -1.2208463331904D-01  2.1751253804619D-01
   160  1.5900000000000D+00 -1.1715012693566D-01  2.0016036833401D-01
   161  1.6000000000000D+00 -1.1194773847101D-01  1.8366021852246D-01
   162  1.6100000000000D+00 -1.0650574923380D-01  1.6799472856138D-01
   163  1.6200000000000D+00 -1.0085466642697D-01  1.5314479750936D-01
   164  1.6300000000000D+00 -9.5027190938772D-02  1.3909052806174D-01
   165  1.6400000000000D+00 -8.9058238967965D-02  1.2581251116584D-01
   166  1.6500000000000D+00 -8.2984777426935D-02  1.1329233266510D-01
   167  1.6600000000000D+00 -7.6845472997653D-02  1.0151224879087D-01
   168  1.6700000000000D+00 -7.0680395365799D-02  9.0455271512219D-02
   169  1.6800000000000D+00 -6.4530692836435D-02  8.0105229303614D-02
   170  1.6900000000000D+00 -5.8438231379813D-02  7.0446727873089D-02
   171  1.7000000000000D+00 -5.2445221512157D-02  6.1465121425542D-02
   172  1.7100000000000D+00 -4.6593828706796D-02  5.3146451123228D-02
   173  1.7200000000000D+00 -4.0925774969502D-02  4.5477368709738D-02
   174  1.7300000000000D+00 -3.5481936126179D-02  3.8445045233543D-02
   175  1.7400000000000D+00 -3.0301939122185D-02  3.2037067681092D-02
   176  1.7500000000000D+00 -2.5423765042107D-02  2.6241326933578D-02
   177  1.7600000000000D+00 -2.0883361692223D-02  2.1045899508122D-02
   178  1.7700000000000D+00 -1.6714271334983D-02  1.6438926718489D-02
   179  1.7800000000000D+00 -1.2947277514745D-02  1.2408493700053D-02
   180  1.7900000000000D+00 -9.6108036896824D-03  8.9427797714872D-03
   181  1.8000000000000D+00 -6.7289294822094D-03  6.0293261645933D-03
   182  1.8100000000000D+00 -4.3169172691810D-03  3.6540713320845D-03
   183  1.8200000000000D+00 -2.3912104259444D-03  1.8055050500995D-03
   184  1.8300000000000D+00 -9.8817846101991D-04  4.6911345519450D-04
   185  1.8400000000000D+00 -1.1363303503283D-04 -3.8858786325025D-04
   186  1.8500000000000D+00  2.7802241940981D-04 -7.3142014287811D-04
   187  1.8600000000000D+00  2.7292901482447D-04 -5.5917500840132D-04
   188  1.8700000000000D+00  8.5184605029668D-05 -1.6227487186953D-04
   189  1.8800000000000D+00 -4.2824370609297D-05  7.9591701798348D-05
   190  1.8900000000000D+00 -3.8981843560129D-05  7.0893670895017D-05
   191  1.9000000000000D+00  5.1179941716142D-06 -9.8835353977277D-06
   192  1.9100000000000D+00  1.0416332585544D-05 -1.9907810163518D-05
   193  1.9200000000000D+00 -2.5944892204294D-08  6.1958140262430D-08
   194  1.9300000000000D+00 -8.7465328577933D-07  2.0887306269996D-06
   195  1.9400000000000D+00 -3.1471528297543D-07  7.5156117403699D-07
   196  1.9500000000000D+00  0.0000000000000D+00  0.0000000000000D+00
   197  1.9600000000000D+00  0.0000000000000D+00  0.0000000000000D+00
   198  1.9700000000000D+00  0.0000000000000D+00  0.0000000000000D+00
   199  1.9800000000000D+00  0.0000000000000D+00  0.0000000000000D+00
   200  1.9900000000000D+00  0.0000000000000D+00  0.0000000000000D+00
   201  2.0000000000000D+00  0.0000000000000D+00  0.0000000000000D+00
   202  2.0100000000000D+00  0.0000000000000D+00  0.0000000000000D+00
   203  2.0200000000000D+00  0.0000000000000D+00  0.0000000000000D+00
   204  2.0300000000000D+00  0.0000000000000D+00  0.0000000000000D+00
   205  2.0400000000000D+00  0.0000000000000D+00  0.0000000000000D+00
   206  2.0500000000000D+00  0.0000000000000D+00  0.0000000000000D+00
   207  2.0600000000000D+00  0.0000000000000D+00  0.0000000000000D+00
   208  2.0700000000000D+00  0.0000000000000D+00  0.0000000000000D+00
   209  2.0800000000000D+00  0.0000000000000D+00  0.0000000000000D+00
   210  2.0900000000000D+00  0.0000000000000D+00  0.0000000000000D+00
   211  2.1000000000000D+00  0.0000000000000D+00  0.0000000000000D+00
   212  2.1100000000000D+00  0.0000000000000D+00  0.0000000000000D+00
   213  2.1200000000000D+00  0.0000000000000D+00  0.0000000000000D+00
   214  2.1300000000000D+00  0.0000000000000D+00  0.0000000000000D+00
   215  2.1400000000000D+00  0.0000000000000D+00  0.0000000000000D+00
   216  2.1500000000000D+00  0.0000000000000D+00  0.0000000000000D+00
   217  2.1600000000000D+00  0.0000000000000D+00  0.0000000000000D+00
   218  2.1700000000000D+00  0.0000000000000D+00  0.0000000000000D+00
   219  2.1800000000000D+00  0.0000000000000D+00  0.0000000000000D+00
   220  2.1900000000000D+00  0.0000000000000D+00  0.0000000000000D+00
   221  2.2000000000000D+00  0.0000000000000D+00  0.0000000000000D+00
   222  2.2100000000000D+00  0.0000000000000D+00  0.0000000000000D+00
   223  2.2200000000000D+00  0.0000000000000D+00  0.0000000000000D+00
   224  2.2300000000000D+00  0.0000000000000D+00  0.0000000000000D+00
   225  2.2400000000000D+00  0.0000000000000D+00  0.0000000000000D+00
   226  2.2500000000000D+00  0.0000000000000D+00  0.0000000000000D+00
   227  2.2600000000000D+00  0.0000000000000D+00  0.0000000000000D+00
   228  2.2700000000000D+00  0.0000000000000D+00  0.0000000000000D+00
   229  2.2800000000000D+00  0.0000000000000D+00  0.0000000000000D+00
   230  2.2900000000000D+00  0.0000000000000D+00  0.0000000000000D+00
   231  2.3000000000000D+00  0.0000000000000D+00  0.0000000000000D+00
   232  2.3100000000000D+00  0.0000000000000D+00  0.0000000000000D+00
   233  2.3200000000000D+00  0.0000000000000D+00  0.0000000000000D+00
   234  2.3300000000000D+00  0.0000000000000D+00  0.0000000000000D+00
   235  2.3400000000000D+00  0.0000000000000D+00  0.0000000000000D+00
   236  2.3500000000000D+00  0.0000000000000D+00  0.0000000000000D+00
   237  2.3600000000000D+00  0.0000000000000D+00  0.0000000000000D+00
   238  2.3700000000000D+00  0.0000000000000D+00  0.0000000000000D+00
   239  2.3800000000000D+00  0.0000000000000D+00  0.0000000000000D+00
   240  2.3900000000000D+00  0.0000000000000D+00  0.0000000000000D+00
   241  2.4000000000000D+00  0.0000000000000D+00  0.0000000000000D+00
   242  2.4100000000000D+00  0.0000000000000D+00  0.0000000000000D+00
   243  2.4200000000000D+00  0.0000000000000D+00  0.0000000000000D+00
   244  2.4300000000000D+00  0.0000000000000D+00  0.0000000000000D+00
   245  2.4400000000000D+00  0.0000000000000D+00  0.0000000000000D+00
   246  2.4500000000000D+00  0.0000000000000D+00  0.0000000000000D+00
   247  2.4600000000000D+00  0.0000000000000D+00  0.0000000000000D+00
   248  2.4700000000000D+00  0.0000000000000D+00  0.0000000000000D+00
   249  2.4800000000000D+00  0.0000000000000D+00  0.0000000000000D+00
   250  2.4900000000000D+00  0.0000000000000D+00  0.0000000000000D+00
   251  2.5000000000000D+00  0.0000000000000D+00  0.0000000000000D+00
   252  2.5100000000000D+00  0.0000000000000D+00  0.0000000000000D+00
   253  2.5200000000000D+00  0.0000000000000D+00  0.0000000000000D+00
   254  2.5300000000000D+00  0.0000000000000D+00  0.0000000000000D+00
   255  2.5400000000000D+00  0.0000000000000D+00  0.0000000000000D+00
   256  2.5500000000000D+00  0.0000000000000D+00  0.0000000000000D+00
   257  2.5600000000000D+00  0.0000000000000D+00  0.0000000000000D+00
   258  2.5700000000000D+00  0.0000000000000D+00  0.0000000000000D+00
   259  2.5800000000000D+00  0.0000000000000D+00  0.0000000000000D+00
   260  2.5900000000000D+00  0.0000000000000D+00  0.0000000000000D+00
   261  2.6000000000000D+00  0.0000000000000D+00  0.0000000000000D+00
   262  2.6100000000000D+00  0.0000000000000D+00  0.0000000000000D+00
   263  2.6200000000000D+00  0.0000000000000D+00  0.0000000000000D+00
   264  2.6300000000000D+00  0.0000000000000D+00  0.0000000000000D+00
   265  2.6400000000000D+00  0.0000000000000D+00  0.0000000000000D+00
   266  2.6500000000000D+00  0.0000000000000D+00  0.0000000000000D+00
   267  2.6600000000000D+00  0.0000000000000D+00  0.0000000000000D+00
   268  2.6700000000000D+00  0.0000000000000D+00  0.0000000000000D+00
   269  2.6800000000000D+00  0.0000000000000D+00  0.0000000000000D+00
   270  2.6900000000000D+00  0.0000000000000D+00  0.0000000000000D+00
   271  2.7000000000000D+00  0.0000000000000D+00  0.0000000000000D+00
   272  2.7100000000000D+00  0.0000000000000D+00  0.0000000000000D+00
   273  2.7200000000000D+00  0.0000000000000D+00  0.0000000000000D+00
   274  2.7300000000000D+00  0.0000000000000D+00  0.0000000000000D+00
   275  2.7400000000000D+00  0.0000000000000D+00  0.0000000000000D+00
   276  2.7500000000000D+00  0.0000000000000D+00  0.0000000000000D+00
   277  2.7600000000000D+00  0.0000000000000D+00  0.0000000000000D+00
   278  2.7700000000000D+00  0.0000000000000D+00  0.0000000000000D+00
   279  2.7800000000000D+00  0.0000000000000D+00  0.0000000000000D+00
   280  2.7900000000000D+00  0.0000000000000D+00  0.0000000000000D+00
   281  2.8000000000000D+00  0.0000000000000D+00  0.0000000000000D+00
   282  2.8100000000000D+00  0.0000000000000D+00  0.0000000000000D+00
   283  2.8200000000000D+00  0.0000000000000D+00  0.0000000000000D+00
   284  2.8300000000000D+00  0.0000000000000D+00  0.0000000000000D+00
   285  2.8400000000000D+00  0.0000000000000D+00  0.0000000000000D+00
   286  2.8500000000000D+00  0.0000000000000D+00  0.0000000000000D+00
   287  2.8600000000000D+00  0.0000000000000D+00  0.0000000000000D+00
   288  2.8700000000000D+00  0.0000000000000D+00  0.0000000000000D+00
   289  2.8800000000000D+00  0.0000000000000D+00  0.0000000000000D+00
   290  2.8900000000000D+00  0.0000000000000D+00  0.0000000000000D+00
   291  2.9000000000000D+00  0.0000000000000D+00  0.0000000000000D+00
   292  2.9100000000000D+00  0.0000000000000D+00  0.0000000000000D+00
   293  2.9200000000000D+00  0.0000000000000D+00  0.0000000000000D+00
   294  2.9300000000000D+00  0.0000000000000D+00  0.0000000000000D+00
   295  2.9400000000000D+00  0.0000000000000D+00  0.0000000000000D+00
   296  2.9500000000000D+00  0.0000000000000D+00  0.0000000000000D+00
   297  2.9600000000000D+00  0.0000000000000D+00  0.0000000000000D+00
   298  2.9700000000000D+00  0.0000000000000D+00  0.0000000000000D+00
   299  2.9800000000000D+00  0.0000000000000D+00  0.0000000000000D+00
   300  2.9900000000000D+00  0.0000000000000D+00  0.0000000000000D+00
   301  3.0000000000000D+00  0.0000000000000D+00  0.0000000000000D+00
   302  3.0100000000000D+00  0.0000000000000D+00  0.0000000000000D+00
   303  3.0200000000000D+00  0.0000000000000D+00  0.0000000000000D+00
   304  3.0300000000000D+00  0.0000000000000D+00  0.0000000000000D+00
   305  3.0400000000000D+00  0.0000000000000D+00  0.0000000000000D+00
   306  3.0500000000000D+00  0.0000000000000D+00  0.0000000000000D+00
   307  3.0600000000000D+00  0.0000000000000D+00  0.0000000000000D+00
   308  3.0700000000000D+00  0.0000000000000D+00  0.0000000000000D+00
   309  3.0800000000000D+00  0.0000000000000D+00  0.0000000000000D+00
   310  3.0900000000000D+00  0.0000000000000D+00  0.0000000000000D+00
   311  3.1000000000000D+00  0.0000000000000D+00  0.0000000000000D+00
   312  3.1100000000000D+00  0.0000000000000D+00  0.0000000000000D+00
   313  3.1200000000000D+00  0.0000000000000D+00  0.0000000000000D+00
   314  3.1300000000000D+00  0.0000000000000D+00  0.0000000000000D+00
   315  3.1400000000000D+00  0.0000000000000D+00  0.0000000000000D+00
   316  3.1500000000000D+00  0.0000000000000D+00  0.0000000000000D+00
   317  3.1600000000000D+00  0.0000000000000D+00  0.0000000000000D+00
   318  3.1700000000000D+00  0.0000000000000D+00  0.0000000000000D+00
   319  3.1800000000000D+00  0.0000000000000D+00  0.0000000000000D+00
   320  3.1900000000000D+00  0.0000000000000D+00  0.0000000000000D+00
   321  3.2000000000000D+00  0.0000000000000D+00  0.0000000000000D+00
   322  3.2100000000000D+00  0.0000000000000D+00  0.0000000000000D+00
   323  3.2200000000000D+00  0.0000000000000D+00  0.0000000000000D+00
   324  3.2300000000000D+00  0.0000000000000D+00  0.0000000000000D+00
   325  3.2400000000000D+00  0.0000000000000D+00  0.0000000000000D+00
   326  3.2500000000000D+00  0.0000000000000D+00  0.0000000000000D+00
   327  3.2600000000000D+00  0.0000000000000D+00  0.0000000000000D+00
   328  3.2700000000000D+00  0.0000000000000D+00  0.0000000000000D+00
   329  3.2800000000000D+00  0.0000000000000D+00  0.0000000000000D+00
   330  3.2900000000000D+00  0.0000000000000D+00  0.0000000000000D+00
   331  3.3000000000000D+00  0.0000000000000D+00  0.0000000000000D+00
   332  3.3100000000000D+00  0.0000000000000D+00  0.0000000000000D+00
   333  3.3200000000000D+00  0.0000000000000D+00  0.0000000000000D+00
   334  3.3300000000000D+00  0.0000000000000D+00  0.0000000000000D+00
   335  3.3400000000000D+00  0.0000000000000D+00  0.0000000000000D+00
   336  3.3500000000000D+00  0.0000000000000D+00  0.0000000000000D+00
   337  3.3600000000000D+00  0.0000000000000D+00  0.0000000000000D+00
   338  3.3700000000000D+00  0.0000000000000D+00  0.0000000000000D+00
   339  3.3800000000000D+00  0.0000000000000D+00  0.0000000000000D+00
   340  3.3900000000000D+00  0.0000000000000D+00  0.0000000000000D+00
   341  3.4000000000000D+00  0.0000000000000D+00  0.0000000000000D+00
   342  3.4100000000000D+00  0.0000000000000D+00  0.0000000000000D+00
   343  3.4200000000000D+00  0.0000000000000D+00  0.0000000000000D+00
   344  3.4300000000000D+00  0.0000000000000D+00  0.0000000000000D+00
   345  3.4400000000000D+00  0.0000000000000D+00  0.0000000000000D+00
   346  3.4500000000000D+00  0.0000000000000D+00  0.0000000000000D+00
   347  3.4600000000000D+00  0.0000000000000D+00  0.0000000000000D+00
   348  3.4700000000000D+00  0.0000000000000D+00  0.0000000000000D+00
   349  3.4800000000000D+00  0.0000000000000D+00  0.0000000000000D+00
   350  3.4900000000000D+00  0.0000000000000D+00  0.0000000000000D+00
   351  3.5000000000000D+00  0.0000000000000D+00  0.0000000000000D+00
   352  3.5100000000000D+00  0.0000000000000D+00  0.0000000000000D+00
   353  3.5200000000000D+00  0.0000000000000D+00  0.0000000000000D+00
   354  3.5300000000000D+00  0.0000000000000D+00  0.0000000000000D+00
   355  3.5400000000000D+00  0.0000000000000D+00  0.0000000000000D+00
   356  3.5500000000000D+00  0.0000000000000D+00  0.0000000000000D+00
   357  3.5600000000000D+00  0.0000000000000D+00  0.0000000000000D+00
   358  3.5700000000000D+00  0.0000000000000D+00  0.0000000000000D+00
   359  3.5800000000000D+00  0.0000000000000D+00  0.0000000000000D+00
   360  3.5900000000000D+00  0.0000000000000D+00  0.0000000000000D+00
   361  3.6000000000000D+00  0.0000000000000D+00  0.0000000000000D+00
   362  3.6100000000000D+00  0.0000000000000D+00  0.0000000000000D+00
   363  3.6200000000000D+00  0.0000000000000D+00  0.0000000000000D+00
   364  3.6300000000000D+00  0.0000000000000D+00  0.0000000000000D+00
   365  3.6400000000000D+00  0.0000000000000D+00  0.0000000000000D+00
   366  3.6500000000000D+00  0.0000000000000D+00  0.0000000000000D+00
   367  3.6600000000000D+00  0.0000000000000D+00  0.0000000000000D+00
   368  3.6700000000000D+00  0.0000000000000D+00  0.0000000000000D+00
   369  3.6800000000000D+00  0.0000000000000D+00  0.0000000000000D+00
   370  3.6900000000000D+00  0.0000000000000D+00  0.0000000000000D+00
   371  3.7000000000000D+00  0.0000000000000D+00  0.0000000000000D+00
   372  3.7100000000000D+00  0.0000000000000D+00  0.0000000000000D+00
   373  3.7200000000000D+00  0.0000000000000D+00  0.0000000000000D+00
   374  3.7300000000000D+00  0.0000000000000D+00  0.0000000000000D+00
   375  3.7400000000000D+00  0.0000000000000D+00  0.0000000000000D+00
   376  3.7500000000000D+00  0.0000000000000D+00  0.0000000000000D+00
   377  3.7600000000000D+00  0.0000000000000D+00  0.0000000000000D+00
   378  3.7700000000000D+00  0.0000000000000D+00  0.0000000000000D+00
   379  3.7800000000000D+00  0.0000000000000D+00  0.0000000000000D+00
   380  3.7900000000000D+00  0.0000000000000D+00  0.0000000000000D+00
   381  3.8000000000000D+00  0.0000000000000D+00  0.0000000000000D+00
   382  3.8100000000000D+00  0.0000000000000D+00  0.0000000000000D+00
   383  3.8200000000000D+00  0.0000000000000D+00  0.0000000000000D+00
   384  3.8300000000000D+00  0.0000000000000D+00  0.0000000000000D+00
   385  3.8400000000000D+00  0.0000000000000D+00  0.0000000000000D+00
   386  3.8500000000000D+00  0.0000000000000D+00  0.0000000000000D+00
   387  3.8600000000000D+00  0.0000000000000D+00  0.0000000000000D+00
   388  3.8700000000000D+00  0.0000000000000D+00  0.0000000000000D+00
   389  3.8800000000000D+00  0.0000000000000D+00  0.0000000000000D+00
   390  3.8900000000000D+00  0.0000000000000D+00  0.0000000000000D+00
   391  3.9000000000000D+00  0.0000000000000D+00  0.0000000000000D+00
   392  3.9100000000000D+00  0.0000000000000D+00  0.0000000000000D+00
   393  3.9200000000000D+00  0.0000000000000D+00  0.0000000000000D+00
   394  3.9300000000000D+00  0.0000000000000D+00  0.0000000000000D+00
   395  3.9400000000000D+00  0.0000000000000D+00  0.0000000000000D+00
   396  3.9500000000000D+00  0.0000000000000D+00  0.0000000000000D+00
   397  3.9600000000000D+00  0.0000000000000D+00  0.0000000000000D+00
   398  3.9700000000000D+00  0.0000000000000D+00  0.0000000000000D+00
   399  3.9800000000000D+00  0.0000000000000D+00  0.0000000000000D+00
   400  3.9900000000000D+00  0.0000000000000D+00  0.0000000000000D+00
   401  4.0000000000000D+00  0.0000000000000D+00  0.0000000000000D+00
   402  4.0100000000000D+00  0.0000000000000D+00  0.0000000000000D+00
   403  4.0200000000000D+00  0.0000000000000D+00  0.0000000000000D+00
   404  4.0300000000000D+00  0.0000000000000D+00  0.0000000000000D+00
   405  4.0400000000000D+00  0.0000000000000D+00  0.0000000000000D+00
   406  4.0500000000000D+00  0.0000000000000D+00  0.0000000000000D+00
   407  4.0600000000000D+00  0.0000000000000D+00  0.0000000000000D+00
   408  4.0700000000000D+00  0.0000000000000D+00  0.0000000000000D+00
   409  4.0800000000000D+00  0.0000000000000D+00  0.0000000000000D+00
   410  4.0900000000000D+00  0.0000000000000D+00  0.0000000000000D+00
   411  4.1000000000000D+00  0.0000000000000D+00  0.0000000000000D+00
   412  4.1100000000000D+00  0.0000000000000D+00  0.0000000000000D+00
   413  4.1200000000000D+00  0.0000000000000D+00  0.0000000000000D+00
   414  4.1300000000000D+00  0.0000000000000D+00  0.0000000000000D+00
   415  4.1400000000000D+00  0.0000000000000D+00  0.0000000000000D+00
   416  4.1500000000000D+00  0.0000000000000D+00  0.0000000000000D+00
   417  4.1600000000000D+00  0.0000000000000D+00  0.0000000000000D+00
   418  4.1700000000000D+00  0.0000000000000D+00  0.0000000000000D+00
   419  4.1800000000000D+00  0.0000000000000D+00  0.0000000000000D+00
   420  4.1900000000000D+00  0.0000000000000D+00  0.0000000000000D+00
   421  4.2000000000000D+00  0.0000000000000D+00  0.0000000000000D+00
   422  4.2100000000000D+00  0.0000000000000D+00  0.0000000000000D+00