Ta    ONCVPSP-3.3.0  r_core=   2.30810   1.86211   2.07314   1.61376
     73.0000     27.0000      220408    zatom,zion,pspd
     8       2   3     4   600     0    pspcod,pspxc,lmax,lloc,mmax,r2well
  5.99000000  0.00000000  0.00000000    rchrg fchrg qchrg
     2     2     2     2     0    nproj
     1     1           extension_switch
   0                         4.5463361096985D+00  9.0876679164866D-01
     1  0.0000000000000D+00  4.9243942257249D-13 -3.5918802654411D-12
     2  1.0000000000000D-02  4.5764869662494D-02 -1.5306617062145D-03
     3  2.0000000000000D-02  9.1478443499684D-02 -3.0519221236847D-03
     4  3.0000000000000D-02  1.3708948166732D-01 -4.5543476416715D-03
     5  4.0000000000000D-02  1.8254685626088D-01 -6.0284402498046D-03
     6  5.0000000000000D-02  2.2779960722939D-01 -7.4646059482596D-03
     7  6.0000000000000D-02  2.7279699822163D-01 -8.8531238874148D-03
     8  7.0000000000000D-02  3.1748857234159D-01 -1.0184116475961D-02
     9  8.0000000000000D-02  3.6182420778957D-01 -1.1447520692846D-02
    10  9.0000000000000D-02  4.0575417336478D-01 -1.2633060833995D-02
    11  1.0000000000000D-01  4.4922918380427D-01 -1.3730222919369D-02
    12  1.1000000000000D-01  4.9220045493251D-01 -1.4728230979734D-02
    13  1.2000000000000D-01  5.3461975859472D-01 -1.5616025435417D-02
    14  1.3000000000000D-01  5.7643947734601D-01 -1.6382243771430D-02
    15  1.4000000000000D-01  6.1761265886706D-01 -1.7015203704519D-02
    16  1.5000000000000D-01  6.5809307007598D-01 -1.7502889028184D-02
    17  1.6000000000000D-01  6.9783525090412D-01 -1.7832938311271D-02
    18  1.7000000000000D-01  7.3679456770241D-01 -1.7992636614591D-02
    19  1.8000000000000D-01  7.7492726624275D-01 -1.7968910378057D-02
    20  1.9000000000000D-01  8.1219052427752D-01 -1.7748325618175D-02
    21  2.0000000000000D-01  8.4854250361791D-01 -1.7317089562314D-02
    22  2.1000000000000D-01  8.8394240169027D-01 -1.6661055832087D-02
    23  2.2000000000000D-01  9.1835050252701D-01 -1.5765733273447D-02
    24  2.3000000000000D-01  9.5172822714685D-01 -1.4616298515749D-02
    25  2.4000000000000D-01  9.8403818327650D-01 -1.3197612326037D-02
    26  2.5000000000000D-01  1.0152442143638D+00 -1.1494239808384D-02
    27  2.6000000000000D-01  1.0453114478296D+00 -9.4904744810318D-03
    28  2.7000000000000D-01  1.0742063425034D+00 -7.1703662466997D-03
    29  2.8000000000000D-01  1.1018967351851D+00 -4.5177532535018D-03
    30  2.9000000000000D-01  1.1283518862723D+00 -1.5162976257069D-03
    31  3.0000000000000D-01  1.1535425243907D+00  1.8504749749937D-03
    32  3.1000000000000D-01  1.1774408899615D+00  5.5991320157357D-03
    33  3.2000000000000D-01  1.2000207776374D+00  9.7462870633988D-03
    34  3.3000000000000D-01  1.2212575775378D+00  1.4308549156236D-02
    35  3.4000000000000D-01  1.2411283152072D+00  1.9302468691624D-02
    36  3.5000000000000D-01  1.2596116902228D+00  2.4744479964289D-02
    37  3.6000000000000D-01  1.2766881133715D+00  3.0650840508549D-02
    38  3.7000000000000D-01  1.2923397423158D+00  3.7037567416914D-02
    39  3.8000000000000D-01  1.3065505156655D+00  4.3920370826112D-02
    40  3.9000000000000D-01  1.3193061853682D+00  5.1314584779963D-02
    41  4.0000000000000D-01  1.3305943473328D+00  5.9235095696359D-02
    42  4.1000000000000D-01  1.3404044701957D+00  6.7696268683228D-02
    43  4.2000000000000D-01  1.3487279221382D+00  7.6711871965234D-02
    44  4.3000000000000D-01  1.3555579956625D+00  8.6294999699207D-02
    45  4.4000000000000D-01  1.3608899302336D+00  9.6457993471835D-02
    46  4.5000000000000D-01  1.3647209326899D+00  1.0721236278806D-01
    47  4.6000000000000D-01  1.3670501953295D+00  1.1856870487216D-01
    48  4.7000000000000D-01  1.3678789115739D+00  1.3053662411680D-01
    49  4.8000000000000D-01  1.3672102891149D+00  1.4312465152662D-01
    50  4.9000000000000D-01  1.3650495604478D+00  1.5634016451418D-01
    51  5.0000000000000D-01  1.3614039906962D+00  1.7018930741500D-01
    52  5.1000000000000D-01  1.3562828826348D+00  1.8467691309702D-01
    53  5.2000000000000D-01  1.3496975788164D+00  1.9980642604636D-01
    54  5.3000000000000D-01  1.3416614607147D+00  2.1557982731664D-01
    55  5.4000000000000D-01  1.3321899447925D+00  2.3199756173308D-01
    56  5.5000000000000D-01  1.3213004754110D+00  2.4905846774482D-01
    57  5.6000000000000D-01  1.3090125144987D+00  2.6675971031957D-01
    58  5.7000000000000D-01  1.2953475279002D+00  2.8509671727368D-01
    59  5.8000000000000D-01  1.2803289683331D+00  3.0406311942807D-01
    60  5.9000000000000D-01  1.2639822548823D+00  3.2365069497599D-01
    61  6.0000000000000D-01  1.2463347489692D+00  3.4384931844217D-01
    62  6.1000000000000D-01  1.2274157267383D+00  3.6464691460508D-01
    63  6.2000000000000D-01  1.2072563478092D+00  3.8602941774390D-01
    64  6.3000000000000D-01  1.1858896203514D+00  4.0798073656031D-01
    65  6.4000000000000D-01  1.1633503624438D+00  4.3048272511124D-01
    66  6.5000000000000D-01  1.1396751596920D+00  4.5351516007375D-01
    67  6.6000000000000D-01  1.1149023190821D+00  4.7705572464575D-01
    68  6.7000000000000D-01  1.0890718190618D+00  5.0107999936702D-01
    69  6.8000000000000D-01  1.0622252558459D+00  5.2556146012478D-01
    70  6.9000000000000D-01  1.0344057859567D+00  5.5047148358493D-01
    71  7.0000000000000D-01  1.0056580650174D+00  5.7577936026628D-01
    72  7.1000000000000D-01  9.7602818283018D-01  6.0145231544920D-01
    73  7.2000000000000D-01  9.4556359477864D-01  6.2745553808286D-01
    74  7.3000000000000D-01  9.1431304960995D-01  6.5375221782625D-01
    75  7.4000000000000D-01  8.8232651366042D-01  6.8030359032844D-01
    76  7.5000000000000D-01  8.4965509160290D-01  7.0706899082167D-01
    77  7.6000000000000D-01  8.1635094380576D-01  7.3400591606867D-01
    78  7.7000000000000D-01  7.8246720040630D-01  7.6107009467176D-01
    79  7.8000000000000D-01  7.4805787221441D-01  7.8821556571694D-01
    80  7.9000000000000D-01  7.1317775857506D-01  8.1539476569063D-01
    81  8.0000000000000D-01  6.7788235233145D-01  8.4255862357102D-01
    82  8.1000000000000D-01  6.4222774204364D-01  8.6965666395913D-01
    83  8.2000000000000D-01  6.0627051163037D-01  8.9663711807827D-01
    84  8.3000000000000D-01  5.7006763761490D-01  9.2344704243313D-01
    85  8.4000000000000D-01  5.3367638416820D-01  9.5003244488283D-01
    86  8.5000000000000D-01  4.9715419615541D-01  9.7633841784530D-01
    87  8.6000000000000D-01  4.6055859040364D-01  1.0023092783136D+00
    88  8.7000000000000D-01  4.2394704542105D-01  1.0278887143285D+00
    89  8.8000000000000D-01  3.8737688980854D-01  1.0530199375159D+00
    90  8.9000000000000D-01  3.5090518961632D-01  1.0776458412643D+00
    91  9.0000000000000D-01  3.1458863490801D-01  1.1017091640800D+00
    92  9.1000000000000D-01  2.7848342580479D-01  1.1251526576307D+00
    93  9.2000000000000D-01  2.4264515829114D-01  1.1479192589511D+00
    94  9.3000000000000D-01  2.0712871007207D-01  1.1699522662585D+00
    95  9.4000000000000D-01  1.7198812677960D-01  1.1911955177956D+00
    96  9.5000000000000D-01  1.3727650883277D-01  1.2115935730931D+00
    97  9.6000000000000D-01  1.0304589926137D-01  1.2310918960194D+00
    98  9.7000000000000D-01  6.9347172808732D-02  1.2496370389625D+00
    99  9.8000000000000D-01  3.6229926632680D-02  1.2671768274690D+00
   100  9.9000000000000D-01  3.7423729266328D-03  1.2836605446494D+00
   101  1.0000000000000D+00 -2.8068766215134D-02  1.2990391146408D+00
   102  1.0100000000000D+00 -5.9158361363486D-02  1.3132652844086D+00
   103  1.0200000000000D+00 -8.9482975427513D-02  1.3262938031566D+00
   104  1.0300000000000D+00 -1.1900096011200D-01  1.3380815986116D+00
   105  1.0400000000000D+00 -1.4767254883952D-01  1.3485879494407D+00
   106  1.0500000000000D+00 -1.7545994582137D-01  1.3577746530616D+00
   107  1.0600000000000D+00 -2.0232741096668D-01  1.3656061881074D+00
   108  1.0700000000000D+00 -2.2824134032589D-01  1.3720498708138D+00
   109  1.0800000000000D+00 -2.5317034177176D-01  1.3770760046018D+00
   110  1.0900000000000D+00 -2.7708530563089D-01  1.3806580221466D+00
   111  1.1000000000000D+00 -2.9995946998813D-01  1.3827726192310D+00
   112  1.1100000000000D+00 -3.2176848039879D-01  1.3833998797064D+00
   113  1.1200000000000D+00 -3.4249044375461D-01  1.3825233909008D+00
   114  1.1300000000000D+00 -3.6210597606395D-01  1.3801303488390D+00
   115  1.1400000000000D+00 -3.8059824392187D-01  1.3762116526666D+00
   116  1.1500000000000D+00 -3.9795299946204D-01  1.3707619877039D+00
   117  1.1600000000000D+00 -4.1415860859782D-01  1.3637798965801D+00
   118  1.1700000000000D+00 -4.2920607237850D-01  1.3552678379410D+00
   119  1.1800000000000D+00 -4.4308904130662D-01  1.3452322322576D+00
   120  1.1900000000000D+00 -4.5580382248376D-01  1.3336834943135D+00
   121  1.2000000000000D+00 -4.6734937946515D-01  1.3206360519699D+00
   122  1.2100000000000D+00 -4.7772732473391D-01  1.3061083508764D+00
   123  1.2200000000000D+00 -4.8694190472487D-01  1.2901228448330D+00
   124  1.2300000000000D+00 -4.9499997734776D-01  1.2727059715559D+00
   125  1.2400000000000D+00 -5.0191098198220D-01  1.2538881136438D+00
   126  1.2500000000000D+00 -5.0768690194804D-01  1.2337035446159D+00
   127  1.2600000000000D+00 -5.1234221947240D-01  1.2121903599288D+00
   128  1.2700000000000D+00 -5.1589386319154D-01  1.1893903929187D+00
   129  1.2800000000000D+00 -5.1836114826850D-01  1.1653491157121D+00
   130  1.2900000000000D+00 -5.1976570921854D-01  1.1401155251744D+00
   131  1.3000000000000D+00 -5.2013142555056D-01  1.1137420140013D+00
   132  1.3100000000000D+00 -5.1948434038204D-01  1.0862842271751D+00
   133  1.3200000000000D+00 -5.1785257218657D-01  1.0578009040088D+00
   134  1.3300000000000D+00 -5.1526621985492D-01  1.0283537060549D+00
   135  1.3400000000000D+00 -5.1175726130028D-01  9.9800703127158D-01
   136  1.3500000000000D+00 -5.0735944582482D-01  9.6682781480923D-01
   137  1.3600000000000D+00 -5.0210818050580D-01  9.3488531687588D-01
   138  1.3700000000000D+00 -4.9604041089367D-01  9.0225089822696D-01
   139  1.3800000000000D+00 -4.8919449628906D-01  8.6899778375938D-01
   140  1.3900000000000D+00 -4.8161007993923D-01  8.3520081487242D-01
   141  1.4000000000000D+00 -4.7332795447732D-01  8.0093619121704D-01
   142  1.4100000000000D+00 -4.6438992294155D-01  7.6628120248642D-01
   143  1.4200000000000D+00 -4.5483865576433D-01  7.3131395103854D-01
   144  1.4300000000000D+00 -4.4471754408023D-01  6.9611306603405D-01
   145  1.4400000000000D+00 -4.3407054976552D-01  6.6075740993909D-01
   146  1.4500000000000D+00 -4.2294205260286D-01  6.2532577819554D-01
   147  1.4600000000000D+00 -4.1137669497701D-01  5.8989659288853D-01
   148  1.4700000000000D+00 -3.9941922453678D-01  5.5454759133205D-01
   149  1.4800000000000D+00 -3.8711433522992D-01  5.1935551040300D-01
   150  1.4900000000000D+00 -3.7450650716009D-01  4.8439576758884D-01
   151  1.5000000000000D+00 -3.6163984568645D-01  4.4974213962580D-01
   152  1.5100000000000D+00 -3.4855792021265D-01  4.1546643968423D-01
   153  1.5200000000000D+00 -3.3530360308887D-01  3.8163819400982D-01
   154  1.5300000000000D+00 -3.2191890907921D-01  3.4832431898319D-01
   155  1.5400000000000D+00 -3.0844483579558D-01  3.1558879947931D-01
   156  1.5500000000000D+00 -2.9492120556497D-01  2.8349236951840D-01
   157  1.5600000000000D+00 -2.8138650824116D-01  2.5209219300168D-01
   158  1.5700000000000D+00 -2.6787774972197D-01  2.2144156071829D-01
   159  1.5800000000000D+00 -2.5443029523447D-01  1.9158956551006D-01
   160  1.5900000000000D+00 -2.4107773284970D-01  1.6258083921695D-01
   161  1.6000000000000D+00 -2.2785174721599D-01  1.3445532768411D-01
   162  1.6100000000000D+00 -2.1478184044048D-01  1.0724751877150D-01
   163  1.6200000000000D+00 -2.0189539098468D-01  8.0986848159025D-02
   164  1.6300000000000D+00 -1.8921798056372D-01  5.5699069332689D-02
   165  1.6400000000000D+00 -1.7677357947031D-01  3.1407004819017D-02
   166  1.6500000000000D+00 -1.6458482656131D-01  8.1315612128311D-03
   167  1.6600000000000D+00 -1.5267304520178D-01 -1.4108191020150D-02
   168  1.6700000000000D+00 -1.4105811216491D-01 -3.5295497212930D-02
   169  1.6800000000000D+00 -1.2975846493618D-01 -5.5415890759140D-02
   170  1.6900000000000D+00 -1.1879108787024D-01 -7.4457245996088D-02
   171  1.7000000000000D+00 -1.0817149434657D-01 -9.2409852835122D-02
   172  1.7100000000000D+00 -9.7913716759934D-02 -1.0926646681847D-01
   173  1.7200000000000D+00 -8.8030299081692D-02 -1.2502235472590D-01
   174  1.7300000000000D+00 -7.8532293784840D-02 -1.3967532902306D-01
   175  1.7400000000000D+00 -6.9429262867725D-02 -1.5322577230266D-01
   176  1.7500000000000D+00 -6.0729282864021D-02 -1.6567665197280D-01
   177  1.7600000000000D+00 -5.2438953954605D-02 -1.7703352489293D-01
   178  1.7700000000000D+00 -4.4563413067137D-02 -1.8730453221676D-01
   179  1.7800000000000D+00 -3.7106351012941D-02 -1.9650038430237D-01
   180  1.7900000000000D+00 -3.0070033570282D-02 -2.0463433589278D-01
   181  1.8000000000000D+00 -2.3455326471175D-02 -2.1172215165189D-01
   182  1.8100000000000D+00 -1.7261724251927D-02 -2.1778206213461D-01
   183  1.8200000000000D+00 -1.1487382805584D-02 -2.2283471056658D-01
   184  1.8300000000000D+00 -6.1291556739277D-03 -2.2690309032247D-01
   185  1.8400000000000D+00 -1.1826337769850D-03 -2.3001247382232D-01
   186  1.8500000000000D+00  3.3578112867733D-03 -2.3219033249927D-01
   187  1.8600000000000D+00  7.4989808156388D-03 -2.3346624891338D-01
   188  1.8700000000000D+00  1.1248799252484D-02 -2.3387182049176D-01
   189  1.8800000000000D+00  1.4616261601996D-02 -2.3344055609665D-01
   190  1.8900000000000D+00  1.7611377897536D-02 -2.3220776510349D-01
   191  1.9000000000000D+00  2.0245115102269D-02 -2.3021043991671D-01
   192  1.9100000000000D+00  2.2529336513166D-02 -2.2748713206832D-01
   193  1.9200000000000D+00  2.4476738891140D-02 -2.2407782242897D-01
   194  1.9300000000000D+00  2.6100787580696D-02 -2.2002378615972D-01
   195  1.9400000000000D+00  2.7415649693410D-02 -2.1536745256207D-01
   196  1.9500000000000D+00  2.8436125769561D-02 -2.1015226083488D-01
   197  1.9600000000000D+00  2.9177579921303D-02 -2.0442251171254D-01
   198  1.9700000000000D+00  2.9655868882188D-02 -1.9822321602597D-01
   199  1.9800000000000D+00  2.9887270066908D-02 -1.9159994040852D-01
   200  1.9900000000000D+00  2.9888408933345D-02 -1.8459865085585D-01
   201  2.0000000000000D+00  2.9676185888858D-02 -1.7726555471551D-01
   202  2.0100000000000D+00  2.9267702956113D-02 -1.6964694160890D-01
   203  2.0200000000000D+00  2.8680190456875D-02 -1.6178902392526D-01
   204  2.0300000000000D+00  2.7930933977240D-02 -1.5373777748926D-01
   205  2.0400000000000D+00  2.7037201800593D-02 -1.4553878287554D-01
   206  2.0500000000000D+00  2.6016173113865D-02 -1.3723706808443D-01
   207  2.0600000000000D+00  2.4884867202687D-02 -1.2887695310054D-01
   208  2.0700000000000D+00  2.3660073796533D-02 -1.2050189673098D-01
   209  2.0800000000000D+00  2.2358284991808D-02 -1.1215434672999D-01
   210  2.0900000000000D+00  2.0995628694010D-02 -1.0387559309507D-01
   211  2.1000000000000D+00  1.9587804083978D-02 -9.5705625727542D-02
   212  2.1100000000000D+00  1.8150019163717D-02 -8.7682996602703D-02
   213  2.1200000000000D+00  1.6696930508230D-02 -7.9844686759503D-02
   214  2.1300000000000D+00  1.5242585774358D-02 -7.2225979419326D-02
   215  2.1400000000000D+00  1.3800368628943D-02 -6.4860338447554D-02
   216  2.1500000000000D+00  1.2382946785518D-02 -5.7779293798005D-02
   217  2.1600000000000D+00  1.1002223075606D-02 -5.1012333774586D-02
   218  2.1700000000000D+00  9.6692895084818D-03 -4.4586804008592D-02
   219  2.1800000000000D+00  8.3943851175363D-03 -3.8527815056745D-02
   220  2.1900000000000D+00  7.1868569069427D-03 -3.2858156995075D-02
   221  2.2000000000000D+00  6.0551246368433D-03 -2.7598222773618D-02
   222  2.2100000000000D+00  5.0066494941365D-03 -2.2765940451745D-02
   223  2.2200000000000D+00  4.0479061251133D-03 -1.8376713071185D-02
   224  2.2300000000000D+00  3.1846107092130D-03 -1.4444553780985D-02
   225  2.2400000000000D+00  2.4212183186485D-03 -1.0979769765110D-02
   226  2.2500000000000D+00  1.7599292278239D-03 -7.9843230810549D-03
   227  2.2600000000000D+00  1.2009572335208D-03 -5.4534152107462D-03
   228  2.2700000000000D+00  7.5001019087785D-04 -3.4097566988059D-03
   229  2.2800000000000D+00  4.1240506512922D-04 -1.8765353512612D-03
   230  2.2900000000000D+00  1.9044626135272D-04 -8.6442573049992D-04
   231  2.3000000000000D+00  6.2911557407066D-05 -2.8021644853591D-04
   232  2.3100000000000D+00  4.7118971577794D-06 -1.3187697979983D-05
   233  2.3200000000000D+00 -1.1364113711331D-05  5.7828778132731D-05
   234  2.3300000000000D+00 -5.9636541180196D-06  2.9361149148335D-05
   235  2.3400000000000D+00  2.4466376863747D-06 -1.1800891728776D-05
   236  2.3500000000000D+00  4.5170241746363D-06 -2.1661200748103D-05
   237  2.3600000000000D+00  1.6998317009860D-06 -8.1258197078974D-06
   238  2.3700000000000D+00 -5.4105083110641D-07  2.6212057739308D-06
   239  2.3800000000000D+00 -7.5980211798068D-07  3.6676458297438D-06
   240  2.3900000000000D+00 -1.8200246947050D-07  8.7620527933876D-07
   241  2.4000000000000D+00 -2.7463916347785D-08  1.0587849146619D-07
   242  2.4100000000000D+00 -3.0585659415375D-08  1.1791339000563D-07
   243  2.4200000000000D+00 -3.1255312755723D-09  1.2049502783847D-08
   244  2.4300000000000D+00  0.0000000000000D+00  0.0000000000000D+00
   245  2.4400000000000D+00  0.0000000000000D+00  0.0000000000000D+00
   246  2.4500000000000D+00  0.0000000000000D+00  0.0000000000000D+00
   247  2.4600000000000D+00  0.0000000000000D+00  0.0000000000000D+00
   248  2.4700000000000D+00  0.0000000000000D+00  0.0000000000000D+00
   249  2.4800000000000D+00  0.0000000000000D+00  0.0000000000000D+00
   250  2.4900000000000D+00  0.0000000000000D+00  0.0000000000000D+00
   251  2.5000000000000D+00  0.0000000000000D+00  0.0000000000000D+00
   252  2.5100000000000D+00  0.0000000000000D+00  0.0000000000000D+00
   253  2.5200000000000D+00  0.0000000000000D+00  0.0000000000000D+00
   254  2.5300000000000D+00  0.0000000000000D+00  0.0000000000000D+00
   255  2.5400000000000D+00  0.0000000000000D+00  0.0000000000000D+00
   256  2.5500000000000D+00  0.0000000000000D+00  0.0000000000000D+00
   257  2.5600000000000D+00  0.0000000000000D+00  0.0000000000000D+00
   258  2.5700000000000D+00  0.0000000000000D+00  0.0000000000000D+00
   259  2.5800000000000D+00  0.0000000000000D+00  0.0000000000000D+00
   260  2.5900000000000D+00  0.0000000000000D+00  0.0000000000000D+00
   261  2.6000000000000D+00  0.0000000000000D+00  0.0000000000000D+00
   262  2.6100000000000D+00  0.0000000000000D+00  0.0000000000000D+00
   263  2.6200000000000D+00  0.0000000000000D+00  0.0000000000000D+00
   264  2.6300000000000D+00  0.0000000000000D+00  0.0000000000000D+00
   265  2.6400000000000D+00  0.0000000000000D+00  0.0000000000000D+00
   266  2.6500000000000D+00  0.0000000000000D+00  0.0000000000000D+00
   267  2.6600000000000D+00  0.0000000000000D+00  0.0000000000000D+00
   268  2.6700000000000D+00  0.0000000000000D+00  0.0000000000000D+00
   269  2.6800000000000D+00  0.0000000000000D+00  0.0000000000000D+00
   270  2.6900000000000D+00  0.0000000000000D+00  0.0000000000000D+00
   271  2.7000000000000D+00  0.0000000000000D+00  0.0000000000000D+00
   272  2.7100000000000D+00  0.0000000000000D+00  0.0000000000000D+00
   273  2.7200000000000D+00  0.0000000000000D+00  0.0000000000000D+00
   274  2.7300000000000D+00  0.0000000000000D+00  0.0000000000000D+00
   275  2.7400000000000D+00  0.0000000000000D+00  0.0000000000000D+00
   276  2.7500000000000D+00  0.0000000000000D+00  0.0000000000000D+00
   277  2.7600000000000D+00  0.0000000000000D+00  0.0000000000000D+00
   278  2.7700000000000D+00  0.0000000000000D+00  0.0000000000000D+00
   279  2.7800000000000D+00  0.0000000000000D+00  0.0000000000000D+00
   280  2.7900000000000D+00  0.0000000000000D+00  0.0000000000000D+00
   281  2.8000000000000D+00  0.0000000000000D+00  0.0000000000000D+00
   282  2.8100000000000D+00  0.0000000000000D+00  0.0000000000000D+00
   283  2.8200000000000D+00  0.0000000000000D+00  0.0000000000000D+00
   284  2.8300000000000D+00  0.0000000000000D+00  0.0000000000000D+00
   285  2.8400000000000D+00  0.0000000000000D+00  0.0000000000000D+00
   286  2.8500000000000D+00  0.0000000000000D+00  0.0000000000000D+00
   287  2.8600000000000D+00  0.0000000000000D+00  0.0000000000000D+00
   288  2.8700000000000D+00  0.0000000000000D+00  0.0000000000000D+00
   289  2.8800000000000D+00  0.0000000000000D+00  0.0000000000000D+00
   290  2.8900000000000D+00  0.0000000000000D+00  0.0000000000000D+00
   291  2.9000000000000D+00  0.0000000000000D+00  0.0000000000000D+00
   292  2.9100000000000D+00  0.0000000000000D+00  0.0000000000000D+00
   293  2.9200000000000D+00  0.0000000000000D+00  0.0000000000000D+00
   294  2.9300000000000D+00  0.0000000000000D+00  0.0000000000000D+00
   295  2.9400000000000D+00  0.0000000000000D+00  0.0000000000000D+00
   296  2.9500000000000D+00  0.0000000000000D+00  0.0000000000000D+00
   297  2.9600000000000D+00  0.0000000000000D+00  0.0000000000000D+00
   298  2.9700000000000D+00  0.0000000000000D+00  0.0000000000000D+00
   299  2.9800000000000D+00  0.0000000000000D+00  0.0000000000000D+00
   300  2.9900000000000D+00  0.0000000000000D+00  0.0000000000000D+00
   301  3.0000000000000D+00  0.0000000000000D+00  0.0000000000000D+00
   302  3.0100000000000D+00  0.0000000000000D+00  0.0000000000000D+00
   303  3.0200000000000D+00  0.0000000000000D+00  0.0000000000000D+00
   304  3.0300000000000D+00  0.0000000000000D+00  0.0000000000000D+00
   305  3.0400000000000D+00  0.0000000000000D+00  0.0000000000000D+00
   306  3.0500000000000D+00  0.0000000000000D+00  0.0000000000000D+00
   307  3.0600000000000D+00  0.0000000000000D+00  0.0000000000000D+00
   308  3.0700000000000D+00  0.0000000000000D+00  0.0000000000000D+00
   309  3.0800000000000D+00  0.0000000000000D+00  0.0000000000000D+00
   310  3.0900000000000D+00  0.0000000000000D+00  0.0000000000000D+00
   311  3.1000000000000D+00  0.0000000000000D+00  0.0000000000000D+00
   312  3.1100000000000D+00  0.0000000000000D+00  0.0000000000000D+00
   313  3.1200000000000D+00  0.0000000000000D+00  0.0000000000000D+00
   314  3.1300000000000D+00  0.0000000000000D+00  0.0000000000000D+00
   315  3.1400000000000D+00  0.0000000000000D+00  0.0000000000000D+00
   316  3.1500000000000D+00  0.0000000000000D+00  0.0000000000000D+00
   317  3.1600000000000D+00  0.0000000000000D+00  0.0000000000000D+00
   318  3.1700000000000D+00  0.0000000000000D+00  0.0000000000000D+00
   319  3.1800000000000D+00  0.0000000000000D+00  0.0000000000000D+00
   320  3.1900000000000D+00  0.0000000000000D+00  0.0000000000000D+00
   321  3.2000000000000D+00  0.0000000000000D+00  0.0000000000000D+00
   322  3.2100000000000D+00  0.0000000000000D+00  0.0000000000000D+00
   323  3.2200000000000D+00  0.0000000000000D+00  0.0000000000000D+00
   324  3.2300000000000D+00  0.0000000000000D+00  0.0000000000000D+00
   325  3.2400000000000D+00  0.0000000000000D+00  0.0000000000000D+00
   326  3.2500000000000D+00  0.0000000000000D+00  0.0000000000000D+00
   327  3.2600000000000D+00  0.0000000000000D+00  0.0000000000000D+00
   328  3.2700000000000D+00  0.0000000000000D+00  0.0000000000000D+00
   329  3.2800000000000D+00  0.0000000000000D+00  0.0000000000000D+00
   330  3.2900000000000D+00  0.0000000000000D+00  0.0000000000000D+00
   331  3.3000000000000D+00  0.0000000000000D+00  0.0000000000000D+00
   332  3.3100000000000D+00  0.0000000000000D+00  0.0000000000000D+00
   333  3.3200000000000D+00  0.0000000000000D+00  0.0000000000000D+00
   334  3.3300000000000D+00  0.0000000000000D+00  0.0000000000000D+00
   335  3.3400000000000D+00  0.0000000000000D+00  0.0000000000000D+00
   336  3.3500000000000D+00  0.0000000000000D+00  0.0000000000000D+00
   337  3.3600000000000D+00  0.0000000000000D+00  0.0000000000000D+00
   338  3.3700000000000D+00  0.0000000000000D+00  0.0000000000000D+00
   339  3.3800000000000D+00  0.0000000000000D+00  0.0000000000000D+00
   340  3.3900000000000D+00  0.0000000000000D+00  0.0000000000000D+00
   341  3.4000000000000D+00  0.0000000000000D+00  0.0000000000000D+00
   342  3.4100000000000D+00  0.0000000000000D+00  0.0000000000000D+00
   343  3.4200000000000D+00  0.0000000000000D+00  0.0000000000000D+00
   344  3.4300000000000D+00  0.0000000000000D+00  0.0000000000000D+00
   345  3.4400000000000D+00  0.0000000000000D+00  0.0000000000000D+00
   346  3.4500000000000D+00  0.0000000000000D+00  0.0000000000000D+00
   347  3.4600000000000D+00  0.0000000000000D+00  0.0000000000000D+00
   348  3.4700000000000D+00  0.0000000000000D+00  0.0000000000000D+00
   349  3.4800000000000D+00  0.0000000000000D+00  0.0000000000000D+00
   350  3.4900000000000D+00  0.0000000000000D+00  0.0000000000000D+00
   351  3.5000000000000D+00  0.0000000000000D+00  0.0000000000000D+00
   352  3.5100000000000D+00  0.0000000000000D+00  0.0000000000000D+00
   353  3.5200000000000D+00  0.0000000000000D+00  0.0000000000000D+00
   354  3.5300000000000D+00  0.0000000000000D+00  0.0000000000000D+00
   355  3.5400000000000D+00  0.0000000000000D+00  0.0000000000000D+00
   356  3.5500000000000D+00  0.0000000000000D+00  0.0000000000000D+00
   357  3.5600000000000D+00  0.0000000000000D+00  0.0000000000000D+00
   358  3.5700000000000D+00  0.0000000000000D+00  0.0000000000000D+00
   359  3.5800000000000D+00  0.0000000000000D+00  0.0000000000000D+00
   360  3.5900000000000D+00  0.0000000000000D+00  0.0000000000000D+00
   361  3.6000000000000D+00  0.0000000000000D+00  0.0000000000000D+00
   362  3.6100000000000D+00  0.0000000000000D+00  0.0000000000000D+00
   363  3.6200000000000D+00  0.0000000000000D+00  0.0000000000000D+00
   364  3.6300000000000D+00  0.0000000000000D+00  0.0000000000000D+00
   365  3.6400000000000D+00  0.0000000000000D+00  0.0000000000000D+00
   366  3.6500000000000D+00  0.0000000000000D+00  0.0000000000000D+00
   367  3.6600000000000D+00  0.0000000000000D+00  0.0000000000000D+00
   368  3.6700000000000D+00  0.0000000000000D+00  0.0000000000000D+00
   369  3.6800000000000D+00  0.0000000000000D+00  0.0000000000000D+00
   370  3.6900000000000D+00  0.0000000000000D+00  0.0000000000000D+00
   371  3.7000000000000D+00  0.0000000000000D+00  0.0000000000000D+00
   372  3.7100000000000D+00  0.0000000000000D+00  0.0000000000000D+00
   373  3.7200000000000D+00  0.0000000000000D+00  0.0000000000000D+00
   374  3.7300000000000D+00  0.0000000000000D+00  0.0000000000000D+00
   375  3.7400000000000D+00  0.0000000000000D+00  0.0000000000000D+00
   376  3.7500000000000D+00  0.0000000000000D+00  0.0000000000000D+00
   377  3.7600000000000D+00  0.0000000000000D+00  0.0000000000000D+00
   378  3.7700000000000D+00  0.0000000000000D+00  0.0000000000000D+00
   379  3.7800000000000D+00  0.0000000000000D+00  0.0000000000000D+00
   380  3.7900000000000D+00  0.0000000000000D+00  0.0000000000000D+00
   381  3.8000000000000D+00  0.0000000000000D+00  0.0000000000000D+00
   382  3.8100000000000D+00  0.0000000000000D+00  0.0000000000000D+00
   383  3.8200000000000D+00  0.0000000000000D+00  0.0000000000000D+00
   384  3.8300000000000D+00  0.0000000000000D+00  0.0000000000000D+00
   385  3.8400000000000D+00  0.0000000000000D+00  0.0000000000000D+00
   386  3.8500000000000D+00  0.0000000000000D+00  0.0000000000000D+00
   387  3.8600000000000D+00  0.0000000000000D+00  0.0000000000000D+00
   388  3.8700000000000D+00  0.0000000000000D+00  0.0000000000000D+00
   389  3.8800000000000D+00  0.0000000000000D+00  0.0000000000000D+00
   390  3.8900000000000D+00  0.0000000000000D+00  0.0000000000000D+00
   391  3.9000000000000D+00  0.0000000000000D+00  0.0000000000000D+00
   392  3.9100000000000D+00  0.0000000000000D+00  0.0000000000000D+00
   393  3.9200000000000D+00  0.0000000000000D+00  0.0000000000000D+00
   394  3.9300000000000D+00  0.0000000000000D+00  0.0000000000000D+00
   395  3.9400000000000D+00  0.0000000000000D+00  0.0000000000000D+00
   396  3.9500000000000D+00  0.0000000000000D+00  0.0000000000000D+00
   397  3.9600000000000D+00  0.0000000000000D+00  0.0000000000000D+00
   398  3.9700000000000D+00  0.0000000000000D+00  0.0000000000000D+00
   399  3.9800000000000D+00  0.0000000000000D+00  0.0000000000000D+00
   400  3.9900000000000D+00  0.0000000000000D+00  0.0000000000000D+00
   401  4.0000000000000D+00  0.0000000000000D+00  0.0000000000000D+00
   402  4.0100000000000D+00  0.0000000000000D+00  0.0000000000000D+00
   403  4.0200000000000D+00  0.0000000000000D+00  0.0000000000000D+00
   404  4.0300000000000D+00  0.0000000000000D+00  0.0000000000000D+00
   405  4.0400000000000D+00  0.0000000000000D+00  0.0000000000000D+00
   406  4.0500000000000D+00  0.0000000000000D+00  0.0000000000000D+00
   407  4.0600000000000D+00  0.0000000000000D+00  0.0000000000000D+00
   408  4.0700000000000D+00  0.0000000000000D+00  0.0000000000000D+00
   409  4.0800000000000D+00  0.0000000000000D+00  0.0000000000000D+00
   410  4.0900000000000D+00  0.0000000000000D+00  0.0000000000000D+00
   411  4.1000000000000D+00  0.0000000000000D+00  0.0000000000000D+00
   412  4.1100000000000D+00  0.0000000000000D+00  0.0000000000000D+00
   413  4.1200000000000D+00  0.0000000000000D+00  0.0000000000000D+00
   414  4.1300000000000D+00  0.0000000000000D+00  0.0000000000000D+00
   415  4.1400000000000D+00  0.0000000000000D+00  0.0000000000000D+00
   416  4.1500000000000D+00  0.0000000000000D+00  0.0000000000000D+00
   417  4.1600000000000D+00  0.0000000000000D+00  0.0000000000000D+00
   418  4.1700000000000D+00  0.0000000000000D+00  0.0000000000000D+00
   419  4.1800000000000D+00  0.0000000000000D+00  0.0000000000000D+00
   420  4.1900000000000D+00  0.0000000000000D+00  0.0000000000000D+00
   421  4.2000000000000D+00  0.0000000000000D+00  0.0000000000000D+00
   422  4.2100000000000D+00  0.0000000000000D+00  0.0000000000000D+00