Ta    ONCVPSP-3.3.0  r_core=   1.71294   1.71294   1.71294   2.25368
     73.0000     13.0000      220408    zatom,zion,pspd
     8       2   3     4   600     0    pspcod,pspxc,lmax,lloc,mmax,r2well
  5.99000000  0.00000000  0.00000000    rchrg fchrg qchrg
     2     2     2     2     0    nproj
     1     1           extension_switch
   0                         1.1725285354853D+01  1.4759367108819D+00
     1  0.0000000000000D+00 -2.5278534820927D-10  5.8102150868322D-10
     2  1.0000000000000D-02  6.4623048491681D-02 -1.9295041435743D-02
     3  2.0000000000000D-02  1.2909858533428D-01 -3.8417027030486D-02
     4  3.0000000000000D-02  1.9327981432456D-01 -5.7194317896496D-02
     5  4.0000000000000D-02  2.5702136387722D-01 -7.5458094809373D-02
     6  5.0000000000000D-02  3.2017998371455D-01 -9.3043732580793D-02
     7  6.0000000000000D-02  3.8261522299362D-01 -1.0979213229625D-01
     8  7.0000000000000D-02  4.4419008398330D-01 -1.2555099806123D-01
     9  8.0000000000000D-02  5.0477164565570D-01 -1.4017604548024D-01
    10  9.0000000000000D-02  5.6423165186818D-01 -1.5353212980820D-01
    11  1.0000000000000D-01  6.2244705917788D-01 -1.6549428255564D-01
    12  1.1000000000000D-01  6.7930053974842D-01 -1.7594864628928D-01
    13  1.2000000000000D-01  7.3468093527307D-01 -1.8479329843794D-01
    14  1.3000000000000D-01  7.8848365834511D-01 -1.9193895607982D-01
    15  1.4000000000000D-01  8.4061103825067D-01 -1.9730955493859D-01
    16  1.5000000000000D-01  8.9097260873377D-01 -2.0084269713976D-01
    17  1.6000000000000D-01  9.3948533588466D-01 -2.0248996366218D-01
    18  1.7000000000000D-01  9.8607378492206D-01 -2.0221708884712D-01
    19  1.8000000000000D-01  1.0306702252728D+00 -2.0000399578571D-01
    20  1.9000000000000D-01  1.0732146739908D+00 -1.9584469287789D-01
    21  2.0000000000000D-01  1.1136548781964D+00 -1.8974703332882D-01
    22  2.1000000000000D-01  1.1519462378465D+00 -1.8173234080497D-01
    23  2.2000000000000D-01  1.1880516707653D+00 -1.7183490589767D-01
    24  2.3000000000000D-01  1.2219414224587D+00 -1.6010135942130D-01
    25  2.4000000000000D-01  1.2535928238097D+00 -1.4658992989176D-01
    26  2.5000000000000D-01  1.2829900002835D+00 -1.3136959377495D-01
    27  2.6000000000000D-01  1.3101235367740D+00 -1.1451912825027D-01
    28  2.7000000000000D-01  1.3349901026732D+00 -9.6126077289498D-02
    29  2.8000000000000D-01  1.3575920421523D+00 -7.6285642794025D-02
    30  2.9000000000000D-01  1.3779369349929D+00 -5.5099513353416D-02
    31  3.0000000000000D-01  1.3960371335991D+00 -3.2674643876649D-02
    32  3.1000000000000D-01  1.4119092820553D+00 -9.1219998954361D-03
    33  3.2000000000000D-01  1.4255738232603D+00  1.5444719259097D-02
    34  3.3000000000000D-01  1.4370545002727D+00  4.0910363954446D-02
    35  3.4000000000000D-01  1.4463778580335D+00  6.7159609882877D-02
    36  3.5000000000000D-01  1.4535727516028D+00  9.4078211330113D-02
    37  3.6000000000000D-01  1.4586698669409D+00  1.2155421782053D-01
    38  3.7000000000000D-01  1.4617012600964D+00  1.4947914024758D-01
    39  3.8000000000000D-01  1.4626999204283D+00  1.7774905312660D-01
    40  3.9000000000000D-01  1.4616993631867D+00  2.0626562028377D-01
    41  4.0000000000000D-01  1.4587332564161D+00  2.3493703211427D-01
    42  4.1000000000000D-01  1.4538350867270D+00  2.6367884349664D-01
    43  4.2000000000000D-01  1.4470378680038D+00  2.9241470252991D-01
    44  4.3000000000000D-01  1.4383738965989D+00  3.2107696145498D-01
    45  4.4000000000000D-01  1.4278745559927D+00  3.4960716241937D-01
    46  4.5000000000000D-01  1.4155701732965D+00  3.7795639213311D-01
    47  4.6000000000000D-01  1.4014899293369D+00  4.0608550092742D-01
    48  4.7000000000000D-01  1.3856618234010D+00  4.3396518325404D-01
    49  4.8000000000000D-01  1.3681126930381D+00  4.6157591823319D-01
    50  4.9000000000000D-01  1.3488682886271D+00  4.8890777045864D-01
    51  5.0000000000000D-01  1.3279534017197D+00  5.1596005287949D-01
    52  5.1000000000000D-01  1.3053920454833D+00  5.4274085518566D-01
    53  5.2000000000000D-01  1.2812076848856D+00  5.6926644270716D-01
    54  5.3000000000000D-01  1.2554235136065D+00  5.9556053238199D-01
    55  5.4000000000000D-01  1.2280627740267D+00  6.2165345383566D-01
    56  5.5000000000000D-01  1.1991491160486D+00  6.4758120502717D-01
    57  5.6000000000000D-01  1.1687069899422D+00  6.7338441324346D-01
    58  5.7000000000000D-01  1.1367620679042D+00  6.9910721344176D-01
    59  5.8000000000000D-01  1.1033416885569D+00  7.2479605704142D-01
    60  5.9000000000000D-01  1.0684753182222D+00  7.5049846523445D-01
    61  6.0000000000000D-01  1.0321950224703D+00  7.7626174170844D-01
    62  6.1000000000000D-01  9.9453594118355D-01  8.0213166034454D-01
    63  6.2000000000000D-01  9.5553676018194D-01  8.2815114395881D-01
    64  6.3000000000000D-01  9.1524017234926D-01  8.5435895048929D-01
    65  6.4000000000000D-01  8.7369332115929D-01  8.8078838318735D-01
    66  6.5000000000000D-01  8.3094821954971D-01  9.0746604134875D-01
    67  6.6000000000000D-01  7.8706213721620D-01  9.3441062791243D-01
    68  6.7000000000000D-01  7.4209794960669D-01  9.6163182986482D-01
    69  6.8000000000000D-01  6.9612444218221D-01  9.8912928681485D-01
    70  6.9000000000000D-01  6.4921656387343D-01  1.0168916623598D+00
    71  7.0000000000000D-01  6.0145562410294D-01  1.0448958319367D+00
    72  7.1000000000000D-01  5.5292942825225D-01  1.0731061997718D+00
    73  7.2000000000000D-01  5.0373234703111D-01  1.1014741563006D+00
    74  7.3000000000000D-01  4.5396531584308D-01  1.1299376860509D+00
    75  7.4000000000000D-01  4.0373576093963D-01  1.1584211344622D+00
    76  7.5000000000000D-01  3.5315744989676D-01  1.1868351404915D+00
    77  7.6000000000000D-01  3.0235026473502D-01  1.2150767401232D+00
    78  7.7000000000000D-01  2.5143989682397D-01  1.2430296440879D+00
    79  7.8000000000000D-01  2.0055746355817D-01  1.2705646912224D+00
    80  7.9000000000000D-01  1.4983904765636D-01  1.2975404769727D+00
    81  8.0000000000000D-01  9.9425160805083D-02  1.3238041546055D+00
    82  8.1000000000000D-01  4.9460134241178D-02  1.3491924047305D+00
    83  8.2000000000000D-01  9.1439727526121D-05  1.3735325668044D+00
    84  8.3000000000000D-01 -4.8531054782960D-02  1.3966439243869D+00
    85  8.4000000000000D-01 -9.6255889687385D-02  1.4183391340760D+00
    86  8.5000000000000D-01 -1.4293087259500D-01  1.4384257862860D+00
    87  8.6000000000000D-01 -1.8840398490241D-01  1.4567080843658D+00
    88  8.7000000000000D-01 -2.3252432880044D-01  1.4729886270066D+00
    89  8.8000000000000D-01 -2.7514310682279D-01  1.4870702774727D+00
    90  8.9000000000000D-01 -3.1611462550891D-01  1.4987581019315D+00
    91  9.0000000000000D-01 -3.5529731429328D-01  1.5078613580622D+00
    92  9.1000000000000D-01 -3.9255475035703D-01  1.5141955142150D+00
    93  9.2000000000000D-01 -4.2775667989057D-01  1.5175842786732D+00
    94  9.3000000000000D-01 -4.6078002602317D-01  1.5178616180598D+00
    95  9.4000000000000D-01 -4.9150987357769D-01  1.5148737436329D+00
    96  9.5000000000000D-01 -5.1984042081286D-01  1.5084810441289D+00
    97  9.6000000000000D-01 -5.4567588841962D-01  1.4985599439616D+00
    98  9.7000000000000D-01 -5.6893137624453D-01  1.4850046659498D+00
    99  9.8000000000000D-01 -5.8953365852034D-01  1.4677288783382D+00
   100  9.9000000000000D-01 -6.0742190879086D-01  1.4466672066906D+00
   101  1.0000000000000D+00 -6.2254834621804D-01  1.4217765922534D+00
   102  1.0100000000000D+00 -6.3487879557191D-01  1.3930374796597D+00
   103  1.0200000000000D+00 -6.4439315385597D-01  1.3604548182063D+00
   104  1.0300000000000D+00 -6.5108575732039D-01  1.3240588626205D+00
   105  1.0400000000000D+00 -6.5496564344612D-01  1.2839057609973D+00
   106  1.0500000000000D+00 -6.5605670339064D-01  1.2400779195218D+00
   107  1.0600000000000D+00 -6.5439772136081D-01  1.1926841356776D+00
   108  1.0700000000000D+00 -6.5004229843259D-01  1.1418594939052D+00
   109  1.0800000000000D+00 -6.4305865929066D-01  1.0877650197302D+00
   110  1.0900000000000D+00 -6.3352934160858D-01  1.0305870910727D+00
   111  1.1000000000000D+00 -6.2155076877947D-01  9.7053660759333D-01
   112  1.1100000000000D+00 -6.0723270791953D-01  9.0784792156263D-01
   113  1.1200000000000D+00 -5.9069761608451D-01  8.4277753595201D-01
   114  1.1300000000000D+00 -5.7207987880218D-01  7.7560257797779D-01
   115  1.1400000000000D+00 -5.5152494612618D-01  7.0661905873688D-01
   116  1.1500000000000D+00 -5.2918837244182D-01  6.3613993181440D-01
   117  1.1600000000000D+00 -5.0523476717149D-01  5.6449296575272D-01
   118  1.1700000000000D+00 -4.7983666452394D-01  4.9201844745740D-01
   119  1.1800000000000D+00 -4.5317332133628D-01  4.1906673560639D-01
   120  1.1900000000000D+00 -4.2542945282277D-01  3.4599568481857D-01
   121  1.2000000000000D+00 -3.9679391656473D-01  2.7316796248493D-01
   122  1.2100000000000D+00 -3.6745835597833D-01  2.0094828216645D-01
   123  1.2200000000000D+00 -3.3761581480643D-01  1.2970057815946D-01
   124  1.2300000000000D+00 -3.0745933454457D-01  5.9785146644669D-02
   125  1.2400000000000D+00 -2.7718054710038D-01 -8.4442202892394D-03
   126  1.2500000000000D+00 -2.4696827510308D-01 -7.4643081165746D-02
   127  1.2600000000000D+00 -2.1700715219779D-01 -1.3847914576246D-01
   128  1.2700000000000D+00 -1.8747627582165D-01 -1.9963500307994D-01
   129  1.2800000000000D+00 -1.5854790450598D-01 -2.5781075078513D-01
   130  1.2900000000000D+00 -1.3038621138755D-01 -3.1272650105657D-01
   131  1.3000000000000D+00 -1.0314610564425D-01 -3.6412473766891D-01
   132  1.3100000000000D+00 -7.6972132245920D-02 -4.1177250200058D-01
   133  1.3200000000000D+00 -5.1997460171070D-02 -4.5546338617265D-01
   134  1.3300000000000D+00 -2.8342968893984D-02 -4.9501931226063D-01
   135  1.3400000000000D+00 -6.1164407330176D-03 -5.3029208131613D-01
   136  1.3500000000000D+00  1.4588132827141D-02 -5.6116467480702D-01
   137  1.3600000000000D+00  3.3691124315713D-02 -5.8755229452115D-01
   138  1.3700000000000D+00  5.1127718887863D-02 -6.0940313231741D-01
   139  1.3800000000000D+00  6.6848232381675D-02 -6.2669885693640D-01
   140  1.3900000000000D+00  8.0818297575611D-02 -6.3945481539587D-01
   141  1.4000000000000D+00  9.3018916768953D-02 -6.4771994512796D-01
   142  1.4100000000000D+00  1.0344637908675D-01 -6.5157639361210D-01
   143  1.4200000000000D+00  1.1211204604398D-01 -6.5113885344880D-01
   144  1.4300000000000D+00  1.1904200493268D-01 -6.4655361216241D-01
   145  1.4400000000000D+00  1.2427659564350D-01 -6.3799732920451D-01
   146  1.4500000000000D+00  1.2786981542661D-01 -6.2567555022045D-01
   147  1.4600000000000D+00  1.2988860623832D-01 -6.0982096894688D-01
   148  1.4700000000000D+00  1.3041203496491D-01 -5.9069145942244D-01
   149  1.4800000000000D+00  1.2953037107619D-01 -5.6856788867672D-01
   150  1.4900000000000D+00  1.2734407474720D-01 -5.4375173856973D-01
   151  1.5000000000000D+00  1.2396270318297D-01 -5.1656255388567D-01
   152  1.5100000000000D+00  1.1950374759730D-01 -4.8733524407442D-01
   153  1.5200000000000D+00  1.1409141268032D-01 -4.5641726467124D-01
   154  1.5300000000000D+00  1.0785535027087D-01 -4.2416570419700D-01
   155  1.5400000000000D+00  1.0092936157355D-01 -3.9094430799631D-01
   156  1.5500000000000D+00  9.3450079908892D-02 -3.5712046542929D-01
   157  1.5600000000000D+00  8.5555651874307D-02 -3.2306220016571D-01
   158  1.5700000000000D+00  7.7384414318735D-02 -2.8913515507162D-01
   159  1.5800000000000D+00  6.9073621534045D-02 -2.5569969772730D-01
   160  1.5900000000000D+00  6.0758149057173D-02 -2.2310797330596D-01
   161  1.6000000000000D+00  5.2569215959737D-02 -1.9170099301883D-01
   162  1.6100000000000D+00  4.4633743137841D-02 -1.6180723027151D-01
   163  1.6200000000000D+00  3.7072571345285D-02 -1.3373850518554D-01
   164  1.6300000000000D+00  2.9997780321030D-02 -1.0778370397101D-01
   165  1.6400000000000D+00  2.3510726988156D-02 -8.4204277965730D-02
   166  1.6500000000000D+00  1.7699907020546D-02 -6.3229355798974D-02
   167  1.6600000000000D+00  1.2643513922362D-02 -4.5066233113480D-02
   168  1.6700000000000D+00  8.3930063744485D-03 -2.9842541348082D-02
   169  1.6800000000000D+00  4.9757271514089D-03 -1.7618567759463D-02
   170  1.6900000000000D+00  2.4799702176832D-03 -8.6811507947959D-03
   171  1.7000000000000D+00  9.6629293566117D-04 -3.2309796500464D-03
   172  1.7100000000000D+00  2.4875110284000D-04 -6.5222404103107D-04
   173  1.7200000000000D+00  8.1998654060674D-06  1.2880848671782D-04
   174  1.7300000000000D+00 -1.1154011261492D-05  7.5469174335375D-05
   175  1.7400000000000D+00  1.1381077387839D-05 -6.4179837523872D-05
   176  1.7500000000000D+00  7.6545817402508D-06 -3.9899213634205D-05
   177  1.7600000000000D+00 -1.3276279881215D-06  9.3507673242368D-06
   178  1.7700000000000D+00 -1.2631620769351D-06  8.1754225129106D-06
   179  1.7800000000000D+00 -2.8588584115143D-07  5.7332591001869D-07
   180  1.7900000000000D+00 -3.2777227091956D-07  6.5732648649889D-07
   181  1.8000000000000D+00  0.0000000000000D+00  0.0000000000000D+00
   182  1.8100000000000D+00  0.0000000000000D+00  0.0000000000000D+00
   183  1.8200000000000D+00  0.0000000000000D+00  0.0000000000000D+00
   184  1.8300000000000D+00  0.0000000000000D+00  0.0000000000000D+00
   185  1.8400000000000D+00  0.0000000000000D+00  0.0000000000000D+00
   186  1.8500000000000D+00  0.0000000000000D+00  0.0000000000000D+00
   187  1.8600000000000D+00  0.0000000000000D+00  0.0000000000000D+00
   188  1.8700000000000D+00  0.0000000000000D+00  0.0000000000000D+00
   189  1.8800000000000D+00  0.0000000000000D+00  0.0000000000000D+00
   190  1.8900000000000D+00  0.0000000000000D+00  0.0000000000000D+00
   191  1.9000000000000D+00  0.0000000000000D+00  0.0000000000000D+00
   192  1.9100000000000D+00  0.0000000000000D+00  0.0000000000000D+00
   193  1.9200000000000D+00  0.0000000000000D+00  0.0000000000000D+00
   194  1.9300000000000D+00  0.0000000000000D+00  0.0000000000000D+00
   195  1.9400000000000D+00  0.0000000000000D+00  0.0000000000000D+00
   196  1.9500000000000D+00  0.0000000000000D+00  0.0000000000000D+00
   197  1.9600000000000D+00  0.0000000000000D+00  0.0000000000000D+00
   198  1.9700000000000D+00  0.0000000000000D+00  0.0000000000000D+00
   199  1.9800000000000D+00  0.0000000000000D+00  0.0000000000000D+00
   200  1.9900000000000D+00  0.0000000000000D+00  0.0000000000000D+00
   201  2.0000000000000D+00  0.0000000000000D+00  0.0000000000000D+00
   202  2.0100000000000D+00  0.0000000000000D+00  0.0000000000000D+00
   203  2.0200000000000D+00  0.0000000000000D+00  0.0000000000000D+00
   204  2.0300000000000D+00  0.0000000000000D+00  0.0000000000000D+00
   205  2.0400000000000D+00  0.0000000000000D+00  0.0000000000000D+00
   206  2.0500000000000D+00  0.0000000000000D+00  0.0000000000000D+00
   207  2.0600000000000D+00  0.0000000000000D+00  0.0000000000000D+00
   208  2.0700000000000D+00  0.0000000000000D+00  0.0000000000000D+00
   209  2.0800000000000D+00  0.0000000000000D+00  0.0000000000000D+00
   210  2.0900000000000D+00  0.0000000000000D+00  0.0000000000000D+00
   211  2.1000000000000D+00  0.0000000000000D+00  0.0000000000000D+00
   212  2.1100000000000D+00  0.0000000000000D+00  0.0000000000000D+00
   213  2.1200000000000D+00  0.0000000000000D+00  0.0000000000000D+00
   214  2.1300000000000D+00  0.0000000000000D+00  0.0000000000000D+00
   215  2.1400000000000D+00  0.0000000000000D+00  0.0000000000000D+00
   216  2.1500000000000D+00  0.0000000000000D+00  0.0000000000000D+00
   217  2.1600000000000D+00  0.0000000000000D+00  0.0000000000000D+00
   218  2.1700000000000D+00  0.0000000000000D+00  0.0000000000000D+00
   219  2.1800000000000D+00  0.0000000000000D+00  0.0000000000000D+00
   220  2.1900000000000D+00  0.0000000000000D+00  0.0000000000000D+00
   221  2.2000000000000D+00  0.0000000000000D+00  0.0000000000000D+00
   222  2.2100000000000D+00  0.0000000000000D+00  0.0000000000000D+00
   223  2.2200000000000D+00  0.0000000000000D+00  0.0000000000000D+00
   224  2.2300000000000D+00  0.0000000000000D+00  0.0000000000000D+00
   225  2.2400000000000D+00  0.0000000000000D+00  0.0000000000000D+00
   226  2.2500000000000D+00  0.0000000000000D+00  0.0000000000000D+00
   227  2.2600000000000D+00  0.0000000000000D+00  0.0000000000000D+00
   228  2.2700000000000D+00  0.0000000000000D+00  0.0000000000000D+00
   229  2.2800000000000D+00  0.0000000000000D+00  0.0000000000000D+00
   230  2.2900000000000D+00  0.0000000000000D+00  0.0000000000000D+00
   231  2.3000000000000D+00  0.0000000000000D+00  0.0000000000000D+00
   232  2.3100000000000D+00  0.0000000000000D+00  0.0000000000000D+00
   233  2.3200000000000D+00  0.0000000000000D+00  0.0000000000000D+00
   234  2.3300000000000D+00  0.0000000000000D+00  0.0000000000000D+00
   235  2.3400000000000D+00  0.0000000000000D+00  0.0000000000000D+00
   236  2.3500000000000D+00  0.0000000000000D+00  0.0000000000000D+00
   237  2.3600000000000D+00  0.0000000000000D+00  0.0000000000000D+00
   238  2.3700000000000D+00  0.0000000000000D+00  0.0000000000000D+00
   239  2.3800000000000D+00  0.0000000000000D+00  0.0000000000000D+00
   240  2.3900000000000D+00  0.0000000000000D+00  0.0000000000000D+00
   241  2.4000000000000D+00  0.0000000000000D+00  0.0000000000000D+00
   242  2.4100000000000D+00  0.0000000000000D+00  0.0000000000000D+00
   243  2.4200000000000D+00  0.0000000000000D+00  0.0000000000000D+00
   244  2.4300000000000D+00  0.0000000000000D+00  0.0000000000000D+00
   245  2.4400000000000D+00  0.0000000000000D+00  0.0000000000000D+00
   246  2.4500000000000D+00  0.0000000000000D+00  0.0000000000000D+00
   247  2.4600000000000D+00  0.0000000000000D+00  0.0000000000000D+00
   248  2.4700000000000D+00  0.0000000000000D+00  0.0000000000000D+00
   249  2.4800000000000D+00  0.0000000000000D+00  0.0000000000000D+00
   250  2.4900000000000D+00  0.0000000000000D+00  0.0000000000000D+00
   251  2.5000000000000D+00  0.0000000000000D+00  0.0000000000000D+00
   252  2.5100000000000D+00  0.0000000000000D+00  0.0000000000000D+00
   253  2.5200000000000D+00  0.0000000000000D+00  0.0000000000000D+00
   254  2.5300000000000D+00  0.0000000000000D+00  0.0000000000000D+00
   255  2.5400000000000D+00  0.0000000000000D+00  0.0000000000000D+00
   256  2.5500000000000D+00  0.0000000000000D+00  0.0000000000000D+00
   257  2.5600000000000D+00  0.0000000000000D+00  0.0000000000000D+00
   258  2.5700000000000D+00  0.0000000000000D+00  0.0000000000000D+00
   259  2.5800000000000D+00  0.0000000000000D+00  0.0000000000000D+00
   260  2.5900000000000D+00  0.0000000000000D+00  0.0000000000000D+00
   261  2.6000000000000D+00  0.0000000000000D+00  0.0000000000000D+00
   262  2.6100000000000D+00  0.0000000000000D+00  0.0000000000000D+00
   263  2.6200000000000D+00  0.0000000000000D+00  0.0000000000000D+00
   264  2.6300000000000D+00  0.0000000000000D+00  0.0000000000000D+00
   265  2.6400000000000D+00  0.0000000000000D+00  0.0000000000000D+00
   266  2.6500000000000D+00  0.0000000000000D+00  0.0000000000000D+00
   267  2.6600000000000D+00  0.0000000000000D+00  0.0000000000000D+00
   268  2.6700000000000D+00  0.0000000000000D+00  0.0000000000000D+00
   269  2.6800000000000D+00  0.0000000000000D+00  0.0000000000000D+00
   270  2.6900000000000D+00  0.0000000000000D+00  0.0000000000000D+00
   271  2.7000000000000D+00  0.0000000000000D+00  0.0000000000000D+00
   272  2.7100000000000D+00  0.0000000000000D+00  0.0000000000000D+00
   273  2.7200000000000D+00  0.0000000000000D+00  0.0000000000000D+00
   274  2.7300000000000D+00  0.0000000000000D+00  0.0000000000000D+00
   275  2.7400000000000D+00  0.0000000000000D+00  0.0000000000000D+00
   276  2.7500000000000D+00  0.0000000000000D+00  0.0000000000000D+00
   277  2.7600000000000D+00  0.0000000000000D+00  0.0000000000000D+00
   278  2.7700000000000D+00  0.0000000000000D+00  0.0000000000000D+00
   279  2.7800000000000D+00  0.0000000000000D+00  0.0000000000000D+00
   280  2.7900000000000D+00  0.0000000000000D+00  0.0000000000000D+00
   281  2.8000000000000D+00  0.0000000000000D+00  0.0000000000000D+00
   282  2.8100000000000D+00  0.0000000000000D+00  0.0000000000000D+00
   283  2.8200000000000D+00  0.0000000000000D+00  0.0000000000000D+00
   284  2.8300000000000D+00  0.0000000000000D+00  0.0000000000000D+00
   285  2.8400000000000D+00  0.0000000000000D+00  0.0000000000000D+00
   286  2.8500000000000D+00  0.0000000000000D+00  0.0000000000000D+00
   287  2.8600000000000D+00  0.0000000000000D+00  0.0000000000000D+00
   288  2.8700000000000D+00  0.0000000000000D+00  0.0000000000000D+00
   289  2.8800000000000D+00  0.0000000000000D+00  0.0000000000000D+00
   290  2.8900000000000D+00  0.0000000000000D+00  0.0000000000000D+00
   291  2.9000000000000D+00  0.0000000000000D+00  0.0000000000000D+00
   292  2.9100000000000D+00  0.0000000000000D+00  0.0000000000000D+00
   293  2.9200000000000D+00  0.0000000000000D+00  0.0000000000000D+00
   294  2.9300000000000D+00  0.0000000000000D+00  0.0000000000000D+00
   295  2.9400000000000D+00  0.0000000000000D+00  0.0000000000000D+00
   296  2.9500000000000D+00  0.0000000000000D+00  0.0000000000000D+00
   297  2.9600000000000D+00  0.0000000000000D+00  0.0000000000000D+00
   298  2.9700000000000D+00  0.0000000000000D+00  0.0000000000000D+00
   299  2.9800000000000D+00  0.0000000000000D+00  0.0000000000000D+00
   300  2.9900000000000D+00  0.0000000000000D+00  0.0000000000000D+00
   301  3.0000000000000D+00  0.0000000000000D+00  0.0000000000000D+00
   302  3.0100000000000D+00  0.0000000000000D+00  0.0000000000000D+00
   303  3.0200000000000D+00  0.0000000000000D+00  0.0000000000000D+00
   304  3.0300000000000D+00  0.0000000000000D+00  0.0000000000000D+00
   305  3.0400000000000D+00  0.0000000000000D+00  0.0000000000000D+00
   306  3.0500000000000D+00  0.0000000000000D+00  0.0000000000000D+00
   307  3.0600000000000D+00  0.0000000000000D+00  0.0000000000000D+00
   308  3.0700000000000D+00  0.0000000000000D+00  0.0000000000000D+00
   309  3.0800000000000D+00  0.0000000000000D+00  0.0000000000000D+00
   310  3.0900000000000D+00  0.0000000000000D+00  0.0000000000000D+00
   311  3.1000000000000D+00  0.0000000000000D+00  0.0000000000000D+00
   312  3.1100000000000D+00  0.0000000000000D+00  0.0000000000000D+00
   313  3.1200000000000D+00  0.0000000000000D+00  0.0000000000000D+00
   314  3.1300000000000D+00  0.0000000000000D+00  0.0000000000000D+00
   315  3.1400000000000D+00  0.0000000000000D+00  0.0000000000000D+00
   316  3.1500000000000D+00  0.0000000000000D+00  0.0000000000000D+00
   317  3.1600000000000D+00  0.0000000000000D+00  0.0000000000000D+00
   318  3.1700000000000D+00  0.0000000000000D+00  0.0000000000000D+00
   319  3.1800000000000D+00  0.0000000000000D+00  0.0000000000000D+00
   320  3.1900000000000D+00  0.0000000000000D+00  0.0000000000000D+00
   321  3.2000000000000D+00  0.0000000000000D+00  0.0000000000000D+00
   322  3.2100000000000D+00  0.0000000000000D+00  0.0000000000000D+00
   323  3.2200000000000D+00  0.0000000000000D+00  0.0000000000000D+00
   324  3.2300000000000D+00  0.0000000000000D+00  0.0000000000000D+00
   325  3.2400000000000D+00  0.0000000000000D+00  0.0000000000000D+00
   326  3.2500000000000D+00  0.0000000000000D+00  0.0000000000000D+00
   327  3.2600000000000D+00  0.0000000000000D+00  0.0000000000000D+00
   328  3.2700000000000D+00  0.0000000000000D+00  0.0000000000000D+00
   329  3.2800000000000D+00  0.0000000000000D+00  0.0000000000000D+00
   330  3.2900000000000D+00  0.0000000000000D+00  0.0000000000000D+00
   331  3.3000000000000D+00  0.0000000000000D+00  0.0000000000000D+00
   332  3.3100000000000D+00  0.0000000000000D+00  0.0000000000000D+00
   333  3.3200000000000D+00  0.0000000000000D+00  0.0000000000000D+00
   334  3.3300000000000D+00  0.0000000000000D+00  0.0000000000000D+00
   335  3.3400000000000D+00  0.0000000000000D+00  0.0000000000000D+00
   336  3.3500000000000D+00  0.0000000000000D+00  0.0000000000000D+00
   337  3.3600000000000D+00  0.0000000000000D+00  0.0000000000000D+00
   338  3.3700000000000D+00  0.0000000000000D+00  0.0000000000000D+00
   339  3.3800000000000D+00  0.0000000000000D+00  0.0000000000000D+00
   340  3.3900000000000D+00  0.0000000000000D+00  0.0000000000000D+00
   341  3.4000000000000D+00  0.0000000000000D+00  0.0000000000000D+00
   342  3.4100000000000D+00  0.0000000000000D+00  0.0000000000000D+00
   343  3.4200000000000D+00  0.0000000000000D+00  0.0000000000000D+00
   344  3.4300000000000D+00  0.0000000000000D+00  0.0000000000000D+00
   345  3.4400000000000D+00  0.0000000000000D+00  0.0000000000000D+00
   346  3.4500000000000D+00  0.0000000000000D+00  0.0000000000000D+00
   347  3.4600000000000D+00  0.0000000000000D+00  0.0000000000000D+00
   348  3.4700000000000D+00  0.0000000000000D+00  0.0000000000000D+00
   349  3.4800000000000D+00  0.0000000000000D+00  0.0000000000000D+00
   350  3.4900000000000D+00  0.0000000000000D+00  0.0000000000000D+00
   351  3.5000000000000D+00  0.0000000000000D+00  0.0000000000000D+00
   352  3.5100000000000D+00  0.0000000000000D+00  0.0000000000000D+00
   353  3.5200000000000D+00  0.0000000000000D+00  0.0000000000000D+00
   354  3.5300000000000D+00  0.0000000000000D+00  0.0000000000000D+00
   355  3.5400000000000D+00  0.0000000000000D+00  0.0000000000000D+00
   356  3.5500000000000D+00  0.0000000000000D+00  0.0000000000000D+00
   357  3.5600000000000D+00  0.0000000000000D+00  0.0000000000000D+00
   358  3.5700000000000D+00  0.0000000000000D+00  0.0000000000000D+00
   359  3.5800000000000D+00  0.0000000000000D+00  0.0000000000000D+00
   360  3.5900000000000D+00  0.0000000000000D+00  0.0000000000000D+00
   361  3.6000000000000D+00  0.0000000000000D+00  0.0000000000000D+00
   362  3.6100000000000D+00  0.0000000000000D+00  0.0000000000000D+00
   363  3.6200000000000D+00  0.0000000000000D+00  0.0000000000000D+00
   364  3.6300000000000D+00  0.0000000000000D+00  0.0000000000000D+00
   365  3.6400000000000D+00  0.0000000000000D+00  0.0000000000000D+00
   366  3.6500000000000D+00  0.0000000000000D+00  0.0000000000000D+00
   367  3.6600000000000D+00  0.0000000000000D+00  0.0000000000000D+00
   368  3.6700000000000D+00  0.0000000000000D+00  0.0000000000000D+00
   369  3.6800000000000D+00  0.0000000000000D+00  0.0000000000000D+00
   370  3.6900000000000D+00  0.0000000000000D+00  0.0000000000000D+00
   371  3.7000000000000D+00  0.0000000000000D+00  0.0000000000000D+00
   372  3.7100000000000D+00  0.0000000000000D+00  0.0000000000000D+00
   373  3.7200000000000D+00  0.0000000000000D+00  0.0000000000000D+00
   374  3.7300000000000D+00  0.0000000000000D+00  0.0000000000000D+00
   375  3.7400000000000D+00  0.0000000000000D+00  0.0000000000000D+00
   376  3.7500000000000D+00  0.0000000000000D+00  0.0000000000000D+00
   377  3.7600000000000D+00  0.0000000000000D+00  0.0000000000000D+00
   378  3.7700000000000D+00  0.0000000000000D+00  0.0000000000000D+00
   379  3.7800000000000D+00  0.0000000000000D+00  0.0000000000000D+00
   380  3.7900000000000D+00  0.0000000000000D+00  0.0000000000000D+00
   381  3.8000000000000D+00  0.0000000000000D+00  0.0000000000000D+00
   382  3.8100000000000D+00  0.0000000000000D+00  0.0000000000000D+00
   383  3.8200000000000D+00  0.0000000000000D+00  0.0000000000000D+00
   384  3.8300000000000D+00  0.0000000000000D+00  0.0000000000000D+00
   385  3.8400000000000D+00  0.0000000000000D+00  0.0000000000000D+00
   386  3.8500000000000D+00  0.0000000000000D+00  0.0000000000000D+00
   387  3.8600000000000D+00  0.0000000000000D+00  0.0000000000000D+00
   388  3.8700000000000D+00  0.0000000000000D+00  0.0000000000000D+00
   389  3.8800000000000D+00  0.0000000000000D+00  0.0000000000000D+00
   390  3.8900000000000D+00  0.0000000000000D+00  0.0000000000000D+00
   391  3.9000000000000D+00  0.0000000000000D+00  0.0000000000000D+00
   392  3.9100000000000D+00  0.0000000000000D+00  0.0000000000000D+00
   393  3.9200000000000D+00  0.0000000000000D+00  0.0000000000000D+00
   394  3.9300000000000D+00  0.0000000000000D+00  0.0000000000000D+00
   395  3.9400000000000D+00  0.0000000000000D+00  0.0000000000000D+00
   396  3.9500000000000D+00  0.0000000000000D+00  0.0000000000000D+00
   397  3.9600000000000D+00  0.0000000000000D+00  0.0000000000000D+00
   398  3.9700000000000D+00  0.0000000000000D+00  0.0000000000000D+00
   399  3.9800000000000D+00  0.0000000000000D+00  0.0000000000000D+00
   400  3.9900000000000D+00  0.0000000000000D+00  0.0000000000000D+00
   401  4.0000000000000D+00  0.0000000000000D+00  0.0000000000000D+00
   402  4.0100000000000D+00  0.0000000000000D+00  0.0000000000000D+00
   403  4.0200000000000D+00  0.0000000000000D+00  0.0000000000000D+00
   404  4.0300000000000D+00  0.0000000000000D+00  0.0000000000000D+00
   405  4.0400000000000D+00  0.0000000000000D+00  0.0000000000000D+00
   406  4.0500000000000D+00  0.0000000000000D+00  0.0000000000000D+00
   407  4.0600000000000D+00  0.0000000000000D+00  0.0000000000000D+00
   408  4.0700000000000D+00  0.0000000000000D+00  0.0000000000000D+00
   409  4.0800000000000D+00  0.0000000000000D+00  0.0000000000000D+00
   410  4.0900000000000D+00  0.0000000000000D+00  0.0000000000000D+00
   411  4.1000000000000D+00  0.0000000000000D+00  0.0000000000000D+00
   412  4.1100000000000D+00  0.0000000000000D+00  0.0000000000000D+00
   413  4.1200000000000D+00  0.0000000000000D+00  0.0000000000000D+00
   414  4.1300000000000D+00  0.0000000000000D+00  0.0000000000000D+00
   415  4.1400000000000D+00  0.0000000000000D+00  0.0000000000000D+00
   416  4.1500000000000D+00  0.0000000000000D+00  0.0000000000000D+00
   417  4.1600000000000D+00  0.0000000000000D+00  0.0000000000000D+00
   418  4.1700000000000D+00  0.0000000000000D+00  0.0000000000000D+00
   419  4.1800000000000D+00  0.0000000000000D+00  0.0000000000000D+00
   420  4.1900000000000D+00  0.0000000000000D+00  0.0000000000000D+00
   421  4.2000000000000D+00  0.0000000000000D+00  0.0000000000000D+00
   422  4.2100000000000D+00  0.0000000000000D+00  0.0000000000000D+00