Ba    ONCVPSP-3.3.0  r_core=   1.95835   1.80147   1.91218
     56.0000     10.0000      220408    zatom,zion,pspd
     8       2   2     4   600     0    pspcod,pspxc,lmax,lloc,mmax,r2well
  5.99000000  0.00000000  0.00000000    rchrg fchrg qchrg
     2     2     2     0     0    nproj
     1     1           extension_switch
   0                         6.5919050952557D+00  6.4812159931107D-01
     1  0.0000000000000D+00  2.3114510305788D-11 -1.1026241031331D-10
     2  1.0000000000000D-02  2.4428858970454D-02 -1.7575738835781D-03
     3  2.0000000000000D-02  4.8865279844837D-02 -3.5667808793767D-03
     4  3.0000000000000D-02  7.3316697781217D-02 -5.4787762838259D-03
     5  4.0000000000000D-02  9.7790295296963D-02 -7.5437634387635D-03
     6  5.0000000000000D-02  1.2229287807006D-01 -9.8105269185164D-03
     7  6.0000000000000D-02  1.4683075326999D-01 -1.2325976635751D-02
     8  7.0000000000000D-02  1.7140961123410D-01 -1.5134706375501D-02
     9  8.0000000000000D-02  1.9603441128219D-01 -1.8278570156526D-02
    10  9.0000000000000D-02  2.2070927243364D-01 -2.1796279682691D-02
    11  1.0000000000000D-01  2.4543736975724D-01 -2.5723025985909D-02
    12  1.1000000000000D-01  2.7022083704532D-01 -3.0090128176866D-02
    13  1.2000000000000D-01  2.9506067645985D-01 -3.4924712012479D-02
    14  1.3000000000000D-01  3.1995667575034D-01 -4.0249420760474D-02
    15  1.4000000000000D-01  3.4490733359110D-01 -4.6082160594248D-02
    16  1.5000000000000D-01  3.6990979352948D-01 -5.2435882486345D-02
    17  1.6000000000000D-01  3.9495978697771D-01 -5.9318402289095D-02
    18  1.7000000000000D-01  4.2005158561852D-01 -6.6732260397773D-02
    19  1.8000000000000D-01  4.4517796353066D-01 -7.4674622087943D-02
    20  1.9000000000000D-01  4.7033016927342D-01 -8.3137219305876D-02
    21  2.0000000000000D-01  4.9549790810144D-01 -9.2106334372347D-02
    22  2.1000000000000D-01  5.2066933441218D-01 -1.0156282573767D-01
    23  2.2000000000000D-01  5.4583105445840D-01 -1.1148219560179D-01
    24  2.3000000000000D-01  5.7096813928879D-01 -1.2183469889078D-01
    25  2.4000000000000D-01  5.9606414781058D-01 -1.3258549276216D-01
    26  2.5000000000000D-01  6.2110115979977D-01 -1.4369482549820D-01
    27  2.6000000000000D-01  6.4605981861786D-01 -1.5511826334248D-01
    28  2.7000000000000D-01  6.7091938332943D-01 -1.6680695354123D-01
    29  2.8000000000000D-01  6.9565778985223D-01 -1.7870792157077D-01
    30  2.9000000000000D-01  7.2025172071226D-01 -1.9076440026748D-01
    31  3.0000000000000D-01  7.4467668291985D-01 -2.0291618832946D-01
    32  3.1000000000000D-01  7.6890709343051D-01 -2.1510003543083D-01
    33  3.2000000000000D-01  7.9291637160562D-01 -2.2725005098325D-01
    34  3.3000000000000D-01  8.1667703804420D-01 -2.3929813339500D-01
    35  3.4000000000000D-01  8.4016081911769D-01 -2.5117441651931D-01
    36  3.5000000000000D-01  8.6333875650534D-01 -2.6280772984925D-01
    37  3.6000000000000D-01  8.8618132099904D-01 -2.7412606891031D-01
    38  3.7000000000000D-01  9.0865852982252D-01 -2.8505707222271D-01
    39  3.8000000000000D-01  9.3074006669249D-01 -2.9552850115492D-01
    40  3.9000000000000D-01  9.5239540383676D-01 -3.0546871896868D-01
    41  4.0000000000000D-01  9.7359392517823D-01 -3.1480716536324D-01
    42  4.1000000000000D-01  9.9430504989340D-01 -3.2347482286428D-01
    43  4.2000000000000D-01  1.0144983555594D+00 -3.3140467146854D-01
    44  4.3000000000000D-01  1.0341437001145D+00 -3.3853212805080D-01
    45  4.4000000000000D-01  1.0532113418750D+00 -3.4479546716274D-01
    46  4.5000000000000D-01  1.0716720568730D+00 -3.5013622000313D-01
    47  4.6000000000000D-01  1.0894972528075D+00 -3.5449954851621D-01
    48  4.7000000000000D-01  1.1066590789359D+00 -3.5783459177523D-01
    49  4.8000000000000D-01  1.1231305312691D+00 -3.6009478203404D-01
    50  4.9000000000000D-01  1.1388855524766D+00 -3.6123812807499D-01
    51  5.0000000000000D-01  1.1538991259565D+00 -3.6122746374818D-01
    52  5.1000000000000D-01  1.1681473635731D+00 -3.6003065988077D-01
    53  5.2000000000000D-01  1.1816075866220D+00 -3.5762079803474D-01
    54  5.3000000000000D-01  1.1942583996375D+00 -3.5397630490396D-01
    55  5.4000000000000D-01  1.2060797567188D+00 -3.4908104646531D-01
    56  5.5000000000000D-01  1.2170530201123D+00 -3.4292438132988D-01
    57  5.6000000000000D-01  1.2271610108509D+00 -3.3550117307836D-01
    58  5.7000000000000D-01  1.2363880513166D+00 -3.2681176170354D-01
    59  5.8000000000000D-01  1.2447199996569D+00 -3.1686189462498D-01
    60  5.9000000000000D-01  1.2521442760521D+00 -3.0566261807661D-01
    61  6.0000000000000D-01  1.2586498808928D+00 -2.9323013000188D-01
    62  6.1000000000000D-01  1.2642274049936D+00 -2.7958559591353D-01
    63  6.2000000000000D-01  1.2688690320293D+00 -2.6475492948951D-01
    64  6.3000000000000D-01  1.2725685334397D+00 -2.4876853997495D-01
    65  6.4000000000000D-01  1.2753212561079D+00 -2.3166104874414D-01
    66  6.5000000000000D-01  1.2771241031701D+00 -2.1347097764089D-01
    67  6.6000000000000D-01  1.2779755083665D+00 -1.9424041195977D-01
    68  6.7000000000000D-01  1.2778754043904D+00 -1.7401464115137D-01
    69  6.8000000000000D-01  1.2768251857333D+00 -1.5284178053052D-01
    70  6.9000000000000D-01  1.2748276665638D+00 -1.3077237743534D-01
    71  7.0000000000000D-01  1.2718870342096D+00 -1.0785900542488D-01
    72  7.1000000000000D-01  1.2680087988412D+00 -8.4155850214138D-02
    73  7.2000000000000D-01  1.2631997399745D+00 -5.9718291123861D-02
    74  7.3000000000000D-01  1.2574678504299D+00 -3.4602481870205D-02
    75  7.4000000000000D-01  1.2508222783930D+00 -8.8649345337282D-03
    76  7.5000000000000D-01  1.2432732682263D+00  1.7437889471318D-02
    77  7.6000000000000D-01  1.2348321006821D+00  4.4249977658214D-02
    78  7.7000000000000D-01  1.2255110331543D+00  7.1516150275288D-02
    79  7.8000000000000D-01  1.2153232405986D+00  9.9182426092903D-02
    80  7.9000000000000D-01  1.2042827577246D+00  1.2719636675327D-01
    81  8.0000000000000D-01  1.1924044230433D+00  1.5550739644636D-01
    82  8.1000000000000D-01  1.1797038253177D+00  1.8406709388642D-01
    83  8.2000000000000D-01  1.1661972529304D+00  2.1282945380236D-01
    84  8.3000000000000D-01  1.1519016466398D+00  2.4175111542088D-01
    85  8.4000000000000D-01  1.1368345561486D+00  2.7079155571112D-01
    86  8.5000000000000D-01  1.1210141008605D+00  2.9991324547294D-01
    87  8.6000000000000D-01  1.1044589351444D+00  3.2908176668337D-01
    88  8.7000000000000D-01  1.0871882183674D+00  3.5826588986600D-01
    89  8.8000000000000D-01  1.0692215898988D+00  3.8743761061305D-01
    90  8.9000000000000D-01  1.0505791492221D+00  4.1657214476664D-01
    91  9.0000000000000D-01  1.0312814412290D+00  4.4564788215010D-01
    92  9.1000000000000D-01  1.0113494467008D+00  4.7464629913230D-01
    93  9.2000000000000D-01  9.9080457791768D-01  5.0355183069978D-01
    94  9.3000000000000D-01  9.6966867926874D-01  5.3235170310370D-01
    95  9.4000000000000D-01  9.4796403266904D-01  5.6103572853545D-01
    96  9.5000000000000D-01  9.2571336752493D-01  5.8959606366474D-01
    97  9.6000000000000D-01  9.0293987492570D-01  6.1802693424181D-01
    98  9.7000000000000D-01  8.7966722567860D-01  6.4632432831910D-01
    99  9.8000000000000D-01  8.5591959174634D-01  6.7448566098370D-01
   100  9.9000000000000D-01  8.3172167059174D-01  7.0250941380757D-01
   101  1.0000000000000D+00  8.0709871188387D-01  7.3039475251472D-01
   102  1.0100000000000D+00  7.8207654597553D-01  7.5814112662353D-01
   103  1.0200000000000D+00  7.5668161351965D-01  7.8574785506837D-01
   104  1.0300000000000D+00  7.3094099555886D-01  8.1321370199994D-01
   105  1.0400000000000D+00  7.0488244339312D-01  8.4053644713724D-01
   106  1.0500000000000D+00  6.7853440750770D-01  8.6771245517894D-01
   107  1.0600000000000D+00  6.5192606482863D-01  8.9473624887579D-01
   108  1.0700000000000D+00  6.2508734356299D-01  9.2160009042751D-01
   109  1.0800000000000D+00  5.9804894488019D-01  9.4829357588502D-01
   110  1.0900000000000D+00  5.7084236069549D-01  9.7480324721623D-01
   111  1.1000000000000D+00  5.4349988683129D-01  1.0011122266254D+00
   112  1.1100000000000D+00  5.1605463085023D-01  1.0271998776180D+00
   113  1.1200000000000D+00  4.8854051388129D-01  1.0530414971622D+00
   114  1.1300000000000D+00  4.6099226579707D-01  1.0786080430995D+00
   115  1.1400000000000D+00  4.3344541314190D-01  1.1038659007339D+00
   116  1.1500000000000D+00  4.0593625925885D-01  1.1287766922666D+00
   117  1.1600000000000D+00  3.7850185611294D-01  1.1532971324776D+00
   118  1.1700000000000D+00  3.5117996737972D-01  1.1773789336626D+00
   119  1.1800000000000D+00  3.2400902243438D-01  1.2009687624723D+00
   120  1.1900000000000D+00  2.9702806093504D-01  1.2240082509839D+00
   121  1.2000000000000D+00  2.7027666778364D-01  1.2464340638381D+00
   122  1.2100000000000D+00  2.4379489833138D-01  1.2681780228198D+00
   123  1.2200000000000D+00  2.1762319378082D-01  1.2891672897876D+00
   124  1.2300000000000D+00  1.9180228679404D-01  1.3093246085436D+00
   125  1.2400000000000D+00  1.6637309745527D-01  1.3285686054669D+00
   126  1.2500000000000D+00  1.4137661981589D-01  1.3468141482908D+00
   127  1.2600000000000D+00  1.1685379928245D-01  1.3639727622228D+00
   128  1.2700000000000D+00  9.2845401290589D-02  1.3799531015972D+00
   129  1.2800000000000D+00  6.9391871765711D-02  1.3946614749157D+00
   130  1.2900000000000D+00  4.6533189899302D-02  1.4080024209857D+00
   131  1.3000000000000D+00  2.4308713957533D-02  1.4198793328057D+00
   132  1.3100000000000D+00  2.7570208897133D-03  1.4301951255574D+00
   133  1.3200000000000D+00 -1.8084259496884D-02  1.4388529450765D+00
   134  1.3300000000000D+00 -3.8178614810304D-02  1.4457569119241D+00
   135  1.3400000000000D+00 -5.7490823834855D-02  1.4508128963169D+00
   136  1.3500000000000D+00 -7.5987132768882D-02  1.4539293188955D+00
   137  1.3600000000000D+00 -9.3635432767993D-02  1.4550179713654D+00
   138  1.3700000000000D+00 -1.1040543768690D-01  1.4539948514146D+00
   139  1.3800000000000D+00 -1.2626886080236D-01  1.4507810056776D+00
   140  1.3900000000000D+00 -1.4119958926263D-01  1.4453033742344D+00
   141  1.4000000000000D+00 -1.5517385503690D-01  1.4374956303535D+00
   142  1.4100000000000D+00 -1.6817040104345D-01  1.4272990085380D+00
   143  1.4200000000000D+00 -1.8017064120526D-01  1.4146631143383D+00
   144  1.4300000000000D+00 -1.9115881310087D-01  1.3995467089513D+00
   145  1.4400000000000D+00 -2.0112212199311D-01  1.3819184620943D+00
   146  1.4500000000000D+00 -2.1005087490729D-01  1.3617576661846D+00
   147  1.4600000000000D+00 -2.1793860359065D-01  1.3390549055035D+00
   148  1.4700000000000D+00 -2.2478217515939D-01  1.3138126739737D+00
   149  1.4800000000000D+00 -2.3058188921771D-01  1.2860459350030D+00
   150  1.4900000000000D+00 -2.3534156056187D-01  1.2557826184811D+00
   151  1.5000000000000D+00 -2.3906858615929D-01  1.2230640479183D+00
   152  1.5100000000000D+00 -2.4177399583841D-01  1.1879452943937D+00
   153  1.5200000000000D+00 -2.4347248546920D-01  1.1504954507406D+00
   154  1.5300000000000D+00 -2.4418243218126D-01  1.1107978231954D+00
   155  1.5400000000000D+00 -2.4392589078601D-01  1.0689500358674D+00
   156  1.5500000000000D+00 -2.4272857085941D-01  1.0250640448062D+00
   157  1.5600000000000D+00 -2.4061979423072D-01  9.7926605994966D-01
   158  1.5700000000000D+00 -2.3763243215586D-01  9.3169637082500D-01
   159  1.5800000000000D+00 -2.3380282258913D-01  8.8250907769908D-01
   160  1.5900000000000D+00 -2.2917066663209D-01  8.3187172301643D-01
   161  1.6000000000000D+00 -2.2377890525200D-01  7.7996482831686D-01
   162  1.6100000000000D+00 -2.1767357523992D-01  7.2698133089468D-01
   163  1.6200000000000D+00 -2.1090364596865D-01  6.7312592781809D-01
   164  1.6300000000000D+00 -2.0352083614962D-01  6.1861432273483D-01
   165  1.6400000000000D+00 -1.9557941228856D-01  5.6367238382311D-01
   166  1.6500000000000D+00 -1.8713596845536D-01  5.0853521045193D-01
   167  1.6600000000000D+00 -1.7824918914017D-01  4.5344611730111D-01
   168  1.6700000000000D+00 -1.6897959520545D-01  3.9865553553894D-01
   169  1.6800000000000D+00 -1.5938927479199D-01  3.4441984026935D-01
   170  1.6900000000000D+00 -1.4954159952214D-01  2.9100010557163D-01
   171  1.7000000000000D+00 -1.3950092796569D-01  2.3866079691957D-01
   172  1.7100000000000D+00 -1.2933229697277D-01  1.8766840365449D-01
   173  1.7200000000000D+00 -1.1910110295547D-01  1.3829002192453D-01
   174  1.7300000000000D+00 -1.0887277392403D-01  9.0791891805591D-02
   175  1.7400000000000D+00 -9.8712434091608D-02  4.5437897379461D-02
   176  1.7500000000000D+00 -8.8684563128506D-02  2.4880409407038D-03
   177  1.7600000000000D+00 -7.8852653094893D-02 -3.7803092167518D-02
   178  1.7700000000000D+00 -6.9278847600919D-02 -7.5187971570090D-02
   179  1.7800000000000D+00 -6.0023640254787D-02 -1.0942741786500D-01
   180  1.7900000000000D+00 -5.1145476976823D-02 -1.4029243359576D-01
   181  1.8000000000000D+00 -4.2700312428470D-02 -1.6756637241562D-01
   182  1.8100000000000D+00 -3.4741549045815D-02 -1.9104477962692D-01
   183  1.8200000000000D+00 -2.7319864427288D-02 -2.1053588643521D-01
   184  1.8300000000000D+00 -2.0483112651559D-02 -2.2586088789208D-01
   185  1.8400000000000D+00 -1.4276341957158D-02 -2.3685353153660D-01
   186  1.8500000000000D+00 -8.7415836570170D-03 -2.4336111498009D-01
   187  1.8600000000000D+00 -3.9175817624640D-03 -2.4524589801712D-01
   188  1.8700000000000D+00  1.6039728606357D-04 -2.4238603489731D-01
   189  1.8800000000000D+00  3.4607195881187D-03 -2.3467628884191D-01
   190  1.8900000000000D+00  5.9540466178925D-03 -2.2201172933208D-01
   191  1.9000000000000D+00  7.5972701458144D-03 -2.0410432513705D-01
   192  1.9100000000000D+00  8.4287489648737D-03 -1.8156400764473D-01
   193  1.9200000000000D+00  8.5437679690290D-03 -1.5566867843745D-01
   194  1.9300000000000D+00  7.6063016731717D-03 -1.2261216009400D-01
   195  1.9400000000000D+00  5.2608487304801D-03 -7.8230820489783D-02
   196  1.9500000000000D+00  2.1466560040452D-03 -3.0209881759489D-02
   197  1.9600000000000D+00 -1.7584984574180D-04  2.9175340077177D-03
   198  1.9700000000000D+00 -6.1659203334157D-04  8.9199098701838D-03
   199  1.9800000000000D+00 -1.2191486694068D-04  1.7311540533971D-03
   200  1.9900000000000D+00  1.3935545748047D-04 -2.0794948521036D-03
   201  2.0000000000000D+00  9.2623175929757D-05 -1.3742988706689D-03
   202  2.0100000000000D+00 -1.0725935833683D-05  1.7240592655137D-04
   203  2.0200000000000D+00 -1.6627961380153D-05  2.6664439665932D-04
   204  2.0300000000000D+00 -4.7533573543507D-09  1.2089606955325D-08
   205  2.0400000000000D+00 -1.0035419213403D-07  2.5523911811704D-07
   206  2.0500000000000D+00 -4.7913092016514D-08  1.2186133027928D-07
   207  2.0600000000000D+00  0.0000000000000D+00  0.0000000000000D+00
   208  2.0700000000000D+00  0.0000000000000D+00  0.0000000000000D+00
   209  2.0800000000000D+00  0.0000000000000D+00  0.0000000000000D+00
   210  2.0900000000000D+00  0.0000000000000D+00  0.0000000000000D+00
   211  2.1000000000000D+00  0.0000000000000D+00  0.0000000000000D+00
   212  2.1100000000000D+00  0.0000000000000D+00  0.0000000000000D+00
   213  2.1200000000000D+00  0.0000000000000D+00  0.0000000000000D+00
   214  2.1300000000000D+00  0.0000000000000D+00  0.0000000000000D+00
   215  2.1400000000000D+00  0.0000000000000D+00  0.0000000000000D+00
   216  2.1500000000000D+00  0.0000000000000D+00  0.0000000000000D+00
   217  2.1600000000000D+00  0.0000000000000D+00  0.0000000000000D+00
   218  2.1700000000000D+00  0.0000000000000D+00  0.0000000000000D+00
   219  2.1800000000000D+00  0.0000000000000D+00  0.0000000000000D+00
   220  2.1900000000000D+00  0.0000000000000D+00  0.0000000000000D+00
   221  2.2000000000000D+00  0.0000000000000D+00  0.0000000000000D+00
   222  2.2100000000000D+00  0.0000000000000D+00  0.0000000000000D+00
   223  2.2200000000000D+00  0.0000000000000D+00  0.0000000000000D+00
   224  2.2300000000000D+00  0.0000000000000D+00  0.0000000000000D+00
   225  2.2400000000000D+00  0.0000000000000D+00  0.0000000000000D+00
   226  2.2500000000000D+00  0.0000000000000D+00  0.0000000000000D+00
   227  2.2600000000000D+00  0.0000000000000D+00  0.0000000000000D+00
   228  2.2700000000000D+00  0.0000000000000D+00  0.0000000000000D+00
   229  2.2800000000000D+00  0.0000000000000D+00  0.0000000000000D+00
   230  2.2900000000000D+00  0.0000000000000D+00  0.0000000000000D+00
   231  2.3000000000000D+00  0.0000000000000D+00  0.0000000000000D+00
   232  2.3100000000000D+00  0.0000000000000D+00  0.0000000000000D+00
   233  2.3200000000000D+00  0.0000000000000D+00  0.0000000000000D+00
   234  2.3300000000000D+00  0.0000000000000D+00  0.0000000000000D+00
   235  2.3400000000000D+00  0.0000000000000D+00  0.0000000000000D+00
   236  2.3500000000000D+00  0.0000000000000D+00  0.0000000000000D+00
   237  2.3600000000000D+00  0.0000000000000D+00  0.0000000000000D+00
   238  2.3700000000000D+00  0.0000000000000D+00  0.0000000000000D+00
   239  2.3800000000000D+00  0.0000000000000D+00  0.0000000000000D+00
   240  2.3900000000000D+00  0.0000000000000D+00  0.0000000000000D+00
   241  2.4000000000000D+00  0.0000000000000D+00  0.0000000000000D+00
   242  2.4100000000000D+00  0.0000000000000D+00  0.0000000000000D+00
   243  2.4200000000000D+00  0.0000000000000D+00  0.0000000000000D+00
   244  2.4300000000000D+00  0.0000000000000D+00  0.0000000000000D+00
   245  2.4400000000000D+00  0.0000000000000D+00  0.0000000000000D+00
   246  2.4500000000000D+00  0.0000000000000D+00  0.0000000000000D+00
   247  2.4600000000000D+00  0.0000000000000D+00  0.0000000000000D+00
   248  2.4700000000000D+00  0.0000000000000D+00  0.0000000000000D+00
   249  2.4800000000000D+00  0.0000000000000D+00  0.0000000000000D+00
   250  2.4900000000000D+00  0.0000000000000D+00  0.0000000000000D+00
   251  2.5000000000000D+00  0.0000000000000D+00  0.0000000000000D+00
   252  2.5100000000000D+00  0.0000000000000D+00  0.0000000000000D+00
   253  2.5200000000000D+00  0.0000000000000D+00  0.0000000000000D+00
   254  2.5300000000000D+00  0.0000000000000D+00  0.0000000000000D+00
   255  2.5400000000000D+00  0.0000000000000D+00  0.0000000000000D+00
   256  2.5500000000000D+00  0.0000000000000D+00  0.0000000000000D+00
   257  2.5600000000000D+00  0.0000000000000D+00  0.0000000000000D+00
   258  2.5700000000000D+00  0.0000000000000D+00  0.0000000000000D+00
   259  2.5800000000000D+00  0.0000000000000D+00  0.0000000000000D+00
   260  2.5900000000000D+00  0.0000000000000D+00  0.0000000000000D+00
   261  2.6000000000000D+00  0.0000000000000D+00  0.0000000000000D+00
   262  2.6100000000000D+00  0.0000000000000D+00  0.0000000000000D+00
   263  2.6200000000000D+00  0.0000000000000D+00  0.0000000000000D+00
   264  2.6300000000000D+00  0.0000000000000D+00  0.0000000000000D+00
   265  2.6400000000000D+00  0.0000000000000D+00  0.0000000000000D+00
   266  2.6500000000000D+00  0.0000000000000D+00  0.0000000000000D+00
   267  2.6600000000000D+00  0.0000000000000D+00  0.0000000000000D+00
   268  2.6700000000000D+00  0.0000000000000D+00  0.0000000000000D+00
   269  2.6800000000000D+00  0.0000000000000D+00  0.0000000000000D+00
   270  2.6900000000000D+00  0.0000000000000D+00  0.0000000000000D+00
   271  2.7000000000000D+00  0.0000000000000D+00  0.0000000000000D+00
   272  2.7100000000000D+00  0.0000000000000D+00  0.0000000000000D+00
   273  2.7200000000000D+00  0.0000000000000D+00  0.0000000000000D+00
   274  2.7300000000000D+00  0.0000000000000D+00  0.0000000000000D+00
   275  2.7400000000000D+00  0.0000000000000D+00  0.0000000000000D+00
   276  2.7500000000000D+00  0.0000000000000D+00  0.0000000000000D+00
   277  2.7600000000000D+00  0.0000000000000D+00  0.0000000000000D+00
   278  2.7700000000000D+00  0.0000000000000D+00  0.0000000000000D+00
   279  2.7800000000000D+00  0.0000000000000D+00  0.0000000000000D+00
   280  2.7900000000000D+00  0.0000000000000D+00  0.0000000000000D+00
   281  2.8000000000000D+00  0.0000000000000D+00  0.0000000000000D+00
   282  2.8100000000000D+00  0.0000000000000D+00  0.0000000000000D+00
   283  2.8200000000000D+00  0.0000000000000D+00  0.0000000000000D+00
   284  2.8300000000000D+00  0.0000000000000D+00  0.0000000000000D+00
   285  2.8400000000000D+00  0.0000000000000D+00  0.0000000000000D+00
   286  2.8500000000000D+00  0.0000000000000D+00  0.0000000000000D+00
   287  2.8600000000000D+00  0.0000000000000D+00  0.0000000000000D+00
   288  2.8700000000000D+00  0.0000000000000D+00  0.0000000000000D+00
   289  2.8800000000000D+00  0.0000000000000D+00  0.0000000000000D+00
   290  2.8900000000000D+00  0.0000000000000D+00  0.0000000000000D+00
   291  2.9000000000000D+00  0.0000000000000D+00  0.0000000000000D+00
   292  2.9100000000000D+00  0.0000000000000D+00  0.0000000000000D+00
   293  2.9200000000000D+00  0.0000000000000D+00  0.0000000000000D+00
   294  2.9300000000000D+00  0.0000000000000D+00  0.0000000000000D+00
   295  2.9400000000000D+00  0.0000000000000D+00  0.0000000000000D+00
   296  2.9500000000000D+00  0.0000000000000D+00  0.0000000000000D+00
   297  2.9600000000000D+00  0.0000000000000D+00  0.0000000000000D+00
   298  2.9700000000000D+00  0.0000000000000D+00  0.0000000000000D+00
   299  2.9800000000000D+00  0.0000000000000D+00  0.0000000000000D+00
   300  2.9900000000000D+00  0.0000000000000D+00  0.0000000000000D+00
   301  3.0000000000000D+00  0.0000000000000D+00  0.0000000000000D+00
   302  3.0100000000000D+00  0.0000000000000D+00  0.0000000000000D+00
   303  3.0200000000000D+00  0.0000000000000D+00  0.0000000000000D+00
   304  3.0300000000000D+00  0.0000000000000D+00  0.0000000000000D+00
   305  3.0400000000000D+00  0.0000000000000D+00  0.0000000000000D+00
   306  3.0500000000000D+00  0.0000000000000D+00  0.0000000000000D+00
   307  3.0600000000000D+00  0.0000000000000D+00  0.0000000000000D+00
   308  3.0700000000000D+00  0.0000000000000D+00  0.0000000000000D+00
   309  3.0800000000000D+00  0.0000000000000D+00  0.0000000000000D+00
   310  3.0900000000000D+00  0.0000000000000D+00  0.0000000000000D+00
   311  3.1000000000000D+00  0.0000000000000D+00  0.0000000000000D+00
   312  3.1100000000000D+00  0.0000000000000D+00  0.0000000000000D+00
   313  3.1200000000000D+00  0.0000000000000D+00  0.0000000000000D+00
   314  3.1300000000000D+00  0.0000000000000D+00  0.0000000000000D+00
   315  3.1400000000000D+00  0.0000000000000D+00  0.0000000000000D+00
   316  3.1500000000000D+00  0.0000000000000D+00  0.0000000000000D+00
   317  3.1600000000000D+00  0.0000000000000D+00  0.0000000000000D+00
   318  3.1700000000000D+00  0.0000000000000D+00  0.0000000000000D+00
   319  3.1800000000000D+00  0.0000000000000D+00  0.0000000000000D+00
   320  3.1900000000000D+00  0.0000000000000D+00  0.0000000000000D+00
   321  3.2000000000000D+00  0.0000000000000D+00  0.0000000000000D+00
   322  3.2100000000000D+00  0.0000000000000D+00  0.0000000000000D+00
   323  3.2200000000000D+00  0.0000000000000D+00  0.0000000000000D+00
   324  3.2300000000000D+00  0.0000000000000D+00  0.0000000000000D+00
   325  3.2400000000000D+00  0.0000000000000D+00  0.0000000000000D+00
   326  3.2500000000000D+00  0.0000000000000D+00  0.0000000000000D+00
   327  3.2600000000000D+00  0.0000000000000D+00  0.0000000000000D+00
   328  3.2700000000000D+00  0.0000000000000D+00  0.0000000000000D+00
   329  3.2800000000000D+00  0.0000000000000D+00  0.0000000000000D+00
   330  3.2900000000000D+00  0.0000000000000D+00  0.0000000000000D+00
   331  3.3000000000000D+00  0.0000000000000D+00  0.0000000000000D+00
   332  3.3100000000000D+00  0.0000000000000D+00  0.0000000000000D+00
   333  3.3200000000000D+00  0.0000000000000D+00  0.0000000000000D+00
   334  3.3300000000000D+00  0.0000000000000D+00  0.0000000000000D+00
   335  3.3400000000000D+00  0.0000000000000D+00  0.0000000000000D+00
   336  3.3500000000000D+00  0.0000000000000D+00  0.0000000000000D+00
   337  3.3600000000000D+00  0.0000000000000D+00  0.0000000000000D+00
   338  3.3700000000000D+00  0.0000000000000D+00  0.0000000000000D+00
   339  3.3800000000000D+00  0.0000000000000D+00  0.0000000000000D+00
   340  3.3900000000000D+00  0.0000000000000D+00  0.0000000000000D+00
   341  3.4000000000000D+00  0.0000000000000D+00  0.0000000000000D+00
   342  3.4100000000000D+00  0.0000000000000D+00  0.0000000000000D+00
   343  3.4200000000000D+00  0.0000000000000D+00  0.0000000000000D+00
   344  3.4300000000000D+00  0.0000000000000D+00  0.0000000000000D+00
   345  3.4400000000000D+00  0.0000000000000D+00  0.0000000000000D+00
   346  3.4500000000000D+00  0.0000000000000D+00  0.0000000000000D+00
   347  3.4600000000000D+00  0.0000000000000D+00  0.0000000000000D+00
   348  3.4700000000000D+00  0.0000000000000D+00  0.0000000000000D+00
   349  3.4800000000000D+00  0.0000000000000D+00  0.0000000000000D+00
   350  3.4900000000000D+00  0.0000000000000D+00  0.0000000000000D+00
   351  3.5000000000000D+00  0.0000000000000D+00  0.0000000000000D+00
   352  3.5100000000000D+00  0.0000000000000D+00  0.0000000000000D+00
   353  3.5200000000000D+00  0.0000000000000D+00  0.0000000000000D+00
   354  3.5300000000000D+00  0.0000000000000D+00  0.0000000000000D+00
   355  3.5400000000000D+00  0.0000000000000D+00  0.0000000000000D+00
   356  3.5500000000000D+00  0.0000000000000D+00  0.0000000000000D+00
   357  3.5600000000000D+00  0.0000000000000D+00  0.0000000000000D+00
   358  3.5700000000000D+00  0.0000000000000D+00  0.0000000000000D+00
   359  3.5800000000000D+00  0.0000000000000D+00  0.0000000000000D+00
   360  3.5900000000000D+00  0.0000000000000D+00  0.0000000000000D+00
   361  3.6000000000000D+00  0.0000000000000D+00  0.0000000000000D+00
   362  3.6100000000000D+00  0.0000000000000D+00  0.0000000000000D+00
   363  3.6200000000000D+00  0.0000000000000D+00  0.0000000000000D+00
   364  3.6300000000000D+00  0.0000000000000D+00  0.0000000000000D+00
   365  3.6400000000000D+00  0.0000000000000D+00  0.0000000000000D+00
   366  3.6500000000000D+00  0.0000000000000D+00  0.0000000000000D+00
   367  3.6600000000000D+00  0.0000000000000D+00  0.0000000000000D+00
   368  3.6700000000000D+00  0.0000000000000D+00  0.0000000000000D+00
   369  3.6800000000000D+00  0.0000000000000D+00  0.0000000000000D+00
   370  3.6900000000000D+00  0.0000000000000D+00  0.0000000000000D+00
   371  3.7000000000000D+00  0.0000000000000D+00  0.0000000000000D+00
   372  3.7100000000000D+00  0.0000000000000D+00  0.0000000000000D+00
   373  3.7200000000000D+00  0.0000000000000D+00  0.0000000000000D+00
   374  3.7300000000000D+00  0.0000000000000D+00  0.0000000000000D+00
   375  3.7400000000000D+00  0.0000000000000D+00  0.0000000000000D+00
   376  3.7500000000000D+00  0.0000000000000D+00  0.0000000000000D+00
   377  3.7600000000000D+00  0.0000000000000D+00  0.0000000000000D+00
   378  3.7700000000000D+00  0.0000000000000D+00  0.0000000000000D+00
   379  3.7800000000000D+00  0.0000000000000D+00  0.0000000000000D+00
   380  3.7900000000000D+00  0.0000000000000D+00  0.0000000000000D+00
   381  3.8000000000000D+00  0.0000000000000D+00  0.0000000000000D+00
   382  3.8100000000000D+00  0.0000000000000D+00  0.0000000000000D+00
   383  3.8200000000000D+00  0.0000000000000D+00  0.0000000000000D+00
   384  3.8300000000000D+00  0.0000000000000D+00  0.0000000000000D+00
   385  3.8400000000000D+00  0.0000000000000D+00  0.0000000000000D+00
   386  3.8500000000000D+00  0.0000000000000D+00  0.0000000000000D+00
   387  3.8600000000000D+00  0.0000000000000D+00  0.0000000000000D+00
   388  3.8700000000000D+00  0.0000000000000D+00  0.0000000000000D+00
   389  3.8800000000000D+00  0.0000000000000D+00  0.0000000000000D+00
   390  3.8900000000000D+00  0.0000000000000D+00  0.0000000000000D+00
   391  3.9000000000000D+00  0.0000000000000D+00  0.0000000000000D+00
   392  3.9100000000000D+00  0.0000000000000D+00  0.0000000000000D+00
   393  3.9200000000000D+00  0.0000000000000D+00  0.0000000000000D+00
   394  3.9300000000000D+00  0.0000000000000D+00  0.0000000000000D+00
   395  3.9400000000000D+00  0.0000000000000D+00  0.0000000000000D+00
   396  3.9500000000000D+00  0.0000000000000D+00  0.0000000000000D+00
   397  3.9600000000000D+00  0.0000000000000D+00  0.0000000000000D+00
   398  3.9700000000000D+00  0.0000000000000D+00  0.0000000000000D+00
   399  3.9800000000000D+00  0.0000000000000D+00  0.0000000000000D+00
   400  3.9900000000000D+00  0.0000000000000D+00  0.0000000000000D+00
   401  4.0000000000000D+00  0.0000000000000D+00  0.0000000000000D+00
   402  4.0100000000000D+00  0.0000000000000D+00  0.0000000000000D+00
   403  4.0200000000000D+00  0.0000000000000D+00  0.0000000000000D+00
   404  4.0300000000000D+00  0.0000000000000D+00  0.0000000000000D+00
   405  4.0400000000000D+00  0.0000000000000D+00  0.0000000000000D+00
   406  4.0500000000000D+00  0.0000000000000D+00  0.0000000000000D+00
   407  4.0600000000000D+00  0.0000000000000D+00  0.0000000000000D+00
   408  4.0700000000000D+00  0.0000000000000D+00  0.0000000000000D+00
   409  4.0800000000000D+00  0.0000000000000D+00  0.0000000000000D+00
   410  4.0900000000000D+00  0.0000000000000D+00  0.0000000000000D+00
   411  4.1000000000000D+00  0.0000000000000D+00  0.0000000000000D+00
   412  4.1100000000000D+00  0.0000000000000D+00  0.0000000000000D+00
   413  4.1200000000000D+00  0.0000000000000D+00  0.0000000000000D+00
   414  4.1300000000000D+00  0.0000000000000D+00  0.0000000000000D+00
   415  4.1400000000000D+00  0.0000000000000D+00  0.0000000000000D+00
   416  4.1500000000000D+00  0.0000000000000D+00  0.0000000000000D+00
   417  4.1600000000000D+00  0.0000000000000D+00  0.0000000000000D+00
   418  4.1700000000000D+00  0.0000000000000D+00  0.0000000000000D+00
   419  4.1800000000000D+00  0.0000000000000D+00  0.0000000000000D+00
   420  4.1900000000000D+00  0.0000000000000D+00  0.0000000000000D+00
   421  4.2000000000000D+00  0.0000000000000D+00  0.0000000000000D+00
   422  4.2100000000000D+00  0.0000000000000D+00  0.0000000000000D+00