Ba    ONCVPSP-3.3.0  r_core=   2.15444   1.91218   2.15444
     56.0000     10.0000      220408    zatom,zion,pspd
     8       2   2     4   600     0    pspcod,pspxc,lmax,lloc,mmax,r2well
  5.99000000  0.00000000  0.00000000    rchrg fchrg qchrg
     2     2     2     0     0    nproj
     1     1           extension_switch
   0                         6.6677820714543D+00  6.8544986709760D-01
     1  0.0000000000000D+00  5.8050508844332D-12 -1.6761896558248D-11
     2  1.0000000000000D-02  2.6031899622333D-02  1.0023720963310D-03
     3  2.0000000000000D-02  5.2067481537876D-02  1.9616922915600D-03
     4  3.0000000000000D-02  7.8110340308542D-02  2.8351677031572D-03
     5  4.0000000000000D-02  1.0416389542775D-01  3.5805223604096D-03
     6  5.0000000000000D-02  1.3023130476999D-01  4.1562528512407D-03
     7  6.0000000000000D-02  1.5631537921689D-01  4.5218806099542D-03
     8  7.0000000000000D-02  1.8241849884502D-01  4.6381997459109D-03
     9  8.0000000000000D-02  2.0854253105515D-01  4.4675193299109D-03
    10  9.0000000000000D-02  2.3468875101506D-01  3.9738990759789D-03
    11  1.0000000000000D-01  2.6085776477966D-01  3.1233773811733D-03
    12  1.1000000000000D-01  2.8704943544213D-01  1.8841907148732D-03
    13  1.2000000000000D-01  3.1326281265827D-01  2.2698338185163D-04
    14  1.3000000000000D-01  3.3949606587389D-01 -1.8749932801716D-03
    15  1.4000000000000D-01  3.6574642157102D-01 -4.4456931675955D-03
    16  1.5000000000000D-01  3.9201010483360D-01 -7.5060999980033D-03
    17  1.6000000000000D-01  4.1828228551708D-01 -1.1074065025693D-02
    18  1.7000000000000D-01  4.4455702928907D-01 -1.5164158643822D-02
    19  1.8000000000000D-01  4.7082725378961D-01 -1.9787536577892D-02
    20  1.9000000000000D-01  4.9708469014017D-01 -2.4951821319313D-02
    21  2.0000000000000D-01  5.2331985001042D-01 -3.0660999388716D-02
    22  2.1000000000000D-01  5.4952199843021D-01 -3.6915334957304D-02
    23  2.2000000000000D-01  5.7567913251251D-01 -4.3711300290944D-02
    24  2.3000000000000D-01  6.0177796623010D-01 -5.1041523415756D-02
    25  2.4000000000000D-01  6.2780392136566D-01 -5.8894753336419D-02
    26  2.5000000000000D-01  6.5374112473089D-01 -6.7255843069168D-02
    27  2.6000000000000D-01  6.7957241172575D-01 -7.6105750680653D-02
    28  2.7000000000000D-01  7.0527933628451D-01 -8.5421558452179D-02
    29  2.8000000000000D-01  7.3084218722980D-01 -9.5176510216072D-02
    30  2.9000000000000D-01  7.5624001103074D-01 -1.0534006683763D-01
    31  3.0000000000000D-01  7.8145064093597D-01 -1.1587797974236D-01
    32  3.1000000000000D-01  8.0645073242648D-01 -1.2675238231452D-01
    33  3.2000000000000D-01  8.3121580490824D-01 -1.3792189891923D-01
    34  3.3000000000000D-01  8.5572028953902D-01 -1.4934177122737D-01
    35  3.4000000000000D-01  8.7993758305890D-01 -1.6096400144991D-01
    36  3.5000000000000D-01  9.0384010746934D-01 -1.7273751201697D-01
    37  3.6000000000000D-01  9.2739937538130D-01 -1.8460832116658D-01
    38  3.7000000000000D-01  9.5058606082938D-01 -1.9651973383964D-01
    39  3.8000000000000D-01  9.7337007532545D-01 -2.0841254721057D-01
    40  3.9000000000000D-01  9.9572064890344D-01 -2.2022527011868D-01
    41  4.0000000000000D-01  1.0176064158846D+00 -2.3189435560258D-01
    42  4.1000000000000D-01  1.0389955050724D+00 -2.4335444568041D-01
    43  4.2000000000000D-01  1.0598556340663D+00 -2.5453862746194D-01
    44  4.3000000000000D-01  1.0801542073645D+00 -2.6537869962447D-01
    45  4.4000000000000D-01  1.0998584179091D+00 -2.7580544823429D-01
    46  4.5000000000000D-01  1.1189353517091D+00 -2.8574893084865D-01
    47  4.6000000000000D-01  1.1373520951636D+00 -2.9513876779034D-01
    48  4.7000000000000D-01  1.1550758446922D+00 -3.0390443944753D-01
    49  4.8000000000000D-01  1.1720740182674D+00 -3.1197558841733D-01
    50  4.9000000000000D-01  1.1883143684339D+00 -3.1928232528105D-01
    51  5.0000000000000D-01  1.2037650963886D+00 -3.2575553677286D-01
    52  5.1000000000000D-01  1.2183949666896D+00 -3.3132719508337D-01
    53  5.2000000000000D-01  1.2321734221533D+00 -3.3593066702265D-01
    54  5.3000000000000D-01  1.2450706984975D+00 -3.3950102175637D-01
    55  5.4000000000000D-01  1.2570579382817D+00 -3.4197533582286D-01
    56  5.5000000000000D-01  1.2681073036992D+00 -3.4329299413700D-01
    57  5.6000000000000D-01  1.2781920877716D+00 -3.4339598569243D-01
    58  5.7000000000000D-01  1.2872868235017D+00 -3.4222919268187D-01
    59  5.8000000000000D-01  1.2953673905434D+00 -3.3974067177098D-01
    60  5.9000000000000D-01  1.3024111189542D+00 -3.3588192628086D-01
    61  6.0000000000000D-01  1.3083968896024D+00 -3.3060816806000D-01
    62  6.1000000000000D-01  1.3133052308100D+00 -3.2387856785699D-01
    63  6.2000000000000D-01  1.3171184108255D+00 -3.1565649304106D-01
    64  6.3000000000000D-01  1.3198205257314D+00 -3.0590973155853D-01
    65  6.4000000000000D-01  1.3213975824063D+00 -2.9461070105927D-01
    66  6.5000000000000D-01  1.3218375761771D+00 -2.8173664217758D-01
    67  6.6000000000000D-01  1.3211305628159D+00 -2.6726979500799D-01
    68  6.7000000000000D-01  1.3192687245529D+00 -2.5119755787575D-01
    69  6.8000000000000D-01  1.3162464297987D+00 -2.3351262756663D-01
    70  6.9000000000000D-01  1.3120602862910D+00 -2.1421312024885D-01
    71  7.0000000000000D-01  1.3067091874034D+00 -1.9330267239200D-01
    72  7.1000000000000D-01  1.3001943513785D+00 -1.7079052106442D-01
    73  7.2000000000000D-01  1.2925193532745D+00 -1.4669156306857D-01
    74  7.3000000000000D-01  1.2836901494378D+00 -1.2102639245783D-01
    75  7.4000000000000D-01  1.2737150943452D+00 -9.3821316061454D-02
    76  7.5000000000000D-01  1.2626049496852D+00 -6.5108346732961D-02
    77  7.6000000000000D-01  1.2503728855783D+00 -3.4925174126604D-02
    78  7.7000000000000D-01  1.2370344738642D+00 -3.3151128971287D-03
    79  7.8000000000000D-01  1.2226076734177D+00  2.9672971688616D-02
    80  7.9000000000000D-01  1.2071128074795D+00  6.3984760647024D-02
    81  8.0000000000000D-01  1.1905725330254D+00  9.9560600504077D-02
    82  8.1000000000000D-01  1.1730118022248D+00  1.3633564458292D-01
    83  8.2000000000000D-01  1.1544578160696D+00  1.7424001598912D-01
    84  8.3000000000000D-01  1.1349399702890D+00  2.1319899183617D-01
    85  8.4000000000000D-01  1.1144897936918D+00  2.5313320816209D-01
    86  8.5000000000000D-01  1.0931408791126D+00  2.9395888489719D-01
    87  8.6000000000000D-01  1.0709288071634D+00  3.3558807015354D-01
    88  8.7000000000000D-01  1.0478910630254D+00  3.7792890302090D-01
    89  8.8000000000000D-01  1.0240669465403D+00  4.2088589396963D-01
    90  8.9000000000000D-01  9.9949747589092D-01  4.6436022187962D-01
    91  9.0000000000000D-01  9.7422528518488D-01  5.0825004663851D-01
    92  9.1000000000000D-01  9.4829451628208D-01  5.5245083617700D-01
    93  9.2000000000000D-01  9.2175070522955D-01  5.9685570674137D-01
    94  9.3000000000000D-01  8.9464066369046D-01  6.4135577513757D-01
    95  9.4000000000000D-01  8.6701235577506D-01  6.8584052162186D-01
    96  9.5000000000000D-01  8.3891477070087D-01  7.3019816205832D-01
    97  9.6000000000000D-01  8.1039779172755D-01  7.7431602791410D-01
    98  9.7000000000000D-01  7.8151206182794D-01  8.1808095262019D-01
    99  9.8000000000000D-01  7.5230884657109D-01  8.6137966278796D-01
   100  9.9000000000000D-01  7.2283989470584D-01  9.0409917274054D-01
   101  1.0000000000000D+00  6.9315729694378D-01  9.4612718079358D-01
   102  1.0100000000000D+00  6.6331334344886D-01  9.8735246570193D-01
   103  1.0200000000000D+00  6.3336038054774D-01  1.0276652816767D+00
   104  1.0300000000000D+00  6.0335066717887D-01  1.0669577503735D+00
   105  1.0400000000000D+00  5.7333623160074D-01  1.1051242482550D+00
   106  1.0500000000000D+00  5.4336872887968D-01  1.1420617877393D+00
   107  1.0600000000000D+00  5.1349929967522D-01  1.1776703905644D+00
   108  1.0700000000000D+00  4.8377843083750D-01  1.2118534518192D+00
   109  1.0800000000000D+00  4.5425581832369D-01  1.2445180931243D+00
   110  1.0900000000000D+00  4.2498023293269D-01  1.2755755034816D+00
   111  1.1000000000000D+00  3.9599938934576D-01  1.3049412663586D+00
   112  1.1100000000000D+00  3.6735981894873D-01  1.3325356716194D+00
   113  1.1200000000000D+00  3.3910674689687D-01  1.3582840109719D+00
   114  1.1300000000000D+00  3.1128397386543D-01  1.3821168556685D+00
   115  1.1400000000000D+00  2.8393376291079D-01  1.4039703152627D+00
   116  1.1500000000000D+00  2.5709673184665D-01  1.4237862763020D+00
   117  1.1600000000000D+00  2.3081175151943D-01  1.4415126199055D+00
   118  1.1700000000000D+00  2.0511585033931D-01  1.4571034172797D+00
   119  1.1800000000000D+00  1.8004412539843D-01  1.4705191023075D+00
   120  1.1900000000000D+00  1.5562966048601D-01  1.4817266204271D+00
   121  1.2000000000000D+00  1.3190345127686D-01  1.4906995531291D+00
   122  1.2100000000000D+00  1.0889433794034D-01  1.4974182175045D+00
   123  1.2200000000000D+00  8.6628945385614D-02  1.5018697403814D+00
   124  1.2300000000000D+00  6.5131631338884D-02  1.5040481066590D+00
   125  1.2400000000000D+00  4.4424442398776D-02  1.5039541816135D+00
   126  1.2500000000000D+00  2.4527078187036D-02  1.5015957070488D+00
   127  1.2600000000000D+00  5.4568637003711D-03  1.4969872712045D+00
   128  1.2700000000000D+00 -1.2771270096694D-02  1.4901502525519D+00
   129  1.2800000000000D+00 -3.0144797420985D-02  1.4811127376847D+00
   130  1.2900000000000D+00 -4.6653600554076D-02  1.4699094135429D+00
   131  1.3000000000000D+00 -6.2289964523363D-02  1.4565814344418D+00
   132  1.3100000000000D+00 -7.7048563668041D-02  1.4411762644530D+00
   133  1.3200000000000D+00 -9.0926440173071D-02  1.4237474956746D+00
   134  1.3300000000000D+00 -1.0392297474647D-01  1.4043546432225D+00
   135  1.3400000000000D+00 -1.1603984961104D-01  1.3830629177616D+00
   136  1.3500000000000D+00 -1.2728100399613D-01  1.3599429764415D+00
   137  1.3600000000000D+00 -1.3765258240086D-01  1.3350706533720D+00
   138  1.3700000000000D+00 -1.4716287587124D-01  1.3085266706806D+00
   139  1.3800000000000D+00 -1.5582225658339D-01  1.2803963313532D+00
   140  1.3900000000000D+00 -1.6364310607878D-01  1.2507691952141D+00
   141  1.4000000000000D+00 -1.7063973745286D-01  1.2197387392746D+00
   142  1.4100000000000D+00 -1.7682831189954D-01  1.1874020039768D+00
   143  1.4200000000000D+00 -1.8222674998217D-01  1.1538592267592D+00
   144  1.4300000000000D+00 -1.8685463802591D-01  1.1192134644523D+00
   145  1.4400000000000D+00 -1.9073313008281D-01  1.0835702061503D+00
   146  1.4500000000000D+00 -1.9388484586872D-01  1.0470369780804D+00
   147  1.4600000000000D+00 -1.9633376515464D-01  1.0097229421928D+00
   148  1.4700000000000D+00 -1.9810511905053D-01  9.7173849008052D-01
   149  1.4800000000000D+00 -1.9922527865846D-01  9.3319483394574D-01
   150  1.4900000000000D+00 -1.9972164156750D-01  8.9420359626137D-01
   151  1.5000000000000D+00 -1.9962251666670D-01  8.5487639986387D-01
   152  1.5100000000000D+00 -1.9895700775334D-01  8.1532446008060D-01
   153  1.5200000000000D+00 -1.9775489641863D-01  7.7565818062860D-01
   154  1.5300000000000D+00 -1.9604652467951D-01  7.3598675484511D-01
   155  1.5400000000000D+00 -1.9386267782526D-01  6.9641777387771D-01
   156  1.5500000000000D+00 -1.9123446795108D-01  6.5705684342239D-01
   157  1.5600000000000D+00 -1.8819321859785D-01  6.1800721038894D-01
   158  1.5700000000000D+00 -1.8477035099332D-01  5.7936940118278D-01
   159  1.5800000000000D+00 -1.8099727222826D-01  5.4124087260965D-01
   160  1.5900000000000D+00 -1.7690526590251D-01  5.0371567724851D-01
   161  1.6000000000000D+00 -1.7252538546104D-01  4.6688414383632D-01
   162  1.6100000000000D+00 -1.6788835079245D-01  4.3083257464747D-01
   163  1.6200000000000D+00 -1.6302444821026D-01  3.9564296002129D-01
   164  1.6300000000000D+00 -1.5796343437248D-01  3.6139271193558D-01
   165  1.6400000000000D+00 -1.5273444420584D-01  3.2815441658234D-01
   166  1.6500000000000D+00 -1.4736590333266D-01  2.9599560760121D-01
   167  1.6600000000000D+00 -1.4188544502115D-01  2.6497855976446D-01
   168  1.6700000000000D+00 -1.3631983209251D-01  2.3516010450602D-01
   169  1.6800000000000D+00 -1.3069488375208D-01  2.0659146689648D-01
   170  1.6900000000000D+00 -1.2503540771761D-01  1.7931812521542D-01
   171  1.7000000000000D+00 -1.1936513754256D-01  1.5337969247278D-01
   172  1.7100000000000D+00 -1.1370667546184D-01  1.2880982084841D-01
   173  1.7200000000000D+00 -1.0808144056528D-01  1.0563612806733D-01
   174  1.7300000000000D+00 -1.0250962260448D-01  8.3880146587855D-02
   175  1.7400000000000D+00 -9.7010141116919D-02  6.3557294185174D-02
   176  1.7500000000000D+00 -9.1600610181633D-02  4.4676866825465D-02
   177  1.7600000000000D+00 -8.6297308338512D-02  2.7242051876003D-02
   178  1.7700000000000D+00 -8.1115154025956D-02  1.1249962674062D-02
   179  1.7800000000000D+00 -7.6067685892001D-02 -3.3083081151368D-03
   180  1.7900000000000D+00 -7.1167048396501D-02 -1.6447615129583D-02
   181  1.8000000000000D+00 -6.6423981883299D-02 -2.8188670096689D-02
   182  1.8100000000000D+00 -6.1847817568209D-02 -3.8557933487029D-02
   183  1.8200000000000D+00 -5.7446476560678D-02 -4.7587491379167D-02
   184  1.8300000000000D+00 -5.3226473219584D-02 -5.5314916792471D-02
   185  1.8400000000000D+00 -4.9192922091379D-02 -6.1783118341125D-02
   186  1.8500000000000D+00 -4.5349547301517D-02 -6.7040181764948D-02
   187  1.8600000000000D+00 -4.1698700263665D-02 -7.1139176948732D-02
   188  1.8700000000000D+00 -3.8241368022756D-02 -7.4138011031442D-02
   189  1.8800000000000D+00 -3.4977198958861D-02 -7.6099207942347D-02
   190  1.8900000000000D+00 -3.1904551986947D-02 -7.7089584116202D-02
   191  1.9000000000000D+00 -2.9020471435253D-02 -7.7180252686514D-02
   192  1.9100000000000D+00 -2.6320597313693D-02 -7.6446962568910D-02
   193  1.9200000000000D+00 -2.3799506835874D-02 -7.4968425038621D-02
   194  1.9300000000000D+00 -2.1450892963053D-02 -7.2825379215821D-02
   195  1.9400000000000D+00 -1.9267806192196D-02 -7.0099484608673D-02
   196  1.9500000000000D+00 -1.7242988041383D-02 -6.6871797145320D-02
   197  1.9600000000000D+00 -1.5369059405540D-02 -6.3221925281527D-02
   198  1.9700000000000D+00 -1.3638527900624D-02 -5.9228039042729D-02
   199  1.9800000000000D+00 -1.2043838478090D-02 -5.4966701622961D-02
   200  1.9900000000000D+00 -1.0577524749278D-02 -5.0512195258905D-02
   201  2.0000000000000D+00 -9.2322720417408D-03 -4.5936280337197D-02
   202  2.0100000000000D+00 -8.0010076120966D-03 -4.1307822017146D-02
   203  2.0200000000000D+00 -6.8769826424498D-03 -3.6692455218981D-02
   204  2.0300000000000D+00 -5.8538495241059D-03 -3.2152270568633D-02
   205  2.0400000000000D+00 -4.9257352233323D-03 -2.7745516881198D-02
   206  2.0500000000000D+00 -4.0873106184142D-03 -2.3526321093608D-02
   207  2.0600000000000D+00 -3.3338542311495D-03 -1.9544431435155D-02
   208  2.0700000000000D+00 -2.6613114017940D-03 -1.5844979940373D-02
   209  2.0800000000000D+00 -2.0664258107669D-03 -1.2468770674319D-02
   210  2.0900000000000D+00 -1.5469068880476D-03 -9.4528593112671D-03
   211  2.1000000000000D+00 -1.0999686602013D-03 -6.8207450506996D-03
   212  2.1100000000000D+00 -7.2356567172147D-04 -4.5872271752239D-03
   213  2.1200000000000D+00 -4.2056613384274D-04 -2.7945867895360D-03
   214  2.1300000000000D+00 -1.9510142421801D-04 -1.4840664615141D-03
   215  2.1400000000000D+00 -4.7826063685282D-05 -6.6414537039180D-04
   216  2.1500000000000D+00  2.9070627379838D-05 -2.2365063179446D-04
   217  2.1600000000000D+00  4.6887526076153D-05 -3.4786221007014D-05
   218  2.1700000000000D+00  2.8183814930204D-05  1.3568551272620D-05
   219  2.1800000000000D+00  7.0811402787986D-07  6.4596023064507D-07
   220  2.1900000000000D+00 -8.6139871255628D-06 -9.9733036984922D-06
   221  2.2000000000000D+00 -5.3595852460345D-06 -7.1653579285630D-06
   222  2.2100000000000D+00  8.5537666986215D-07  5.6878478611837D-07
   223  2.2200000000000D+00  1.7688255496137D-06  1.3733027080405D-06
   224  2.2300000000000D+00  5.5864616266972D-07  4.8220298870138D-07
   225  2.2400000000000D+00 -9.8792651351852D-08  2.6663338688682D-07
   226  2.2500000000000D+00 -1.0949699244350D-07  2.9552353894371D-07
   227  2.2600000000000D+00  0.0000000000000D+00  0.0000000000000D+00
   228  2.2700000000000D+00  0.0000000000000D+00  0.0000000000000D+00
   229  2.2800000000000D+00  0.0000000000000D+00  0.0000000000000D+00
   230  2.2900000000000D+00  0.0000000000000D+00  0.0000000000000D+00
   231  2.3000000000000D+00  0.0000000000000D+00  0.0000000000000D+00
   232  2.3100000000000D+00  0.0000000000000D+00  0.0000000000000D+00
   233  2.3200000000000D+00  0.0000000000000D+00  0.0000000000000D+00
   234  2.3300000000000D+00  0.0000000000000D+00  0.0000000000000D+00
   235  2.3400000000000D+00  0.0000000000000D+00  0.0000000000000D+00
   236  2.3500000000000D+00  0.0000000000000D+00  0.0000000000000D+00
   237  2.3600000000000D+00  0.0000000000000D+00  0.0000000000000D+00
   238  2.3700000000000D+00  0.0000000000000D+00  0.0000000000000D+00
   239  2.3800000000000D+00  0.0000000000000D+00  0.0000000000000D+00
   240  2.3900000000000D+00  0.0000000000000D+00  0.0000000000000D+00
   241  2.4000000000000D+00  0.0000000000000D+00  0.0000000000000D+00
   242  2.4100000000000D+00  0.0000000000000D+00  0.0000000000000D+00
   243  2.4200000000000D+00  0.0000000000000D+00  0.0000000000000D+00
   244  2.4300000000000D+00  0.0000000000000D+00  0.0000000000000D+00
   245  2.4400000000000D+00  0.0000000000000D+00  0.0000000000000D+00
   246  2.4500000000000D+00  0.0000000000000D+00  0.0000000000000D+00
   247  2.4600000000000D+00  0.0000000000000D+00  0.0000000000000D+00
   248  2.4700000000000D+00  0.0000000000000D+00  0.0000000000000D+00
   249  2.4800000000000D+00  0.0000000000000D+00  0.0000000000000D+00
   250  2.4900000000000D+00  0.0000000000000D+00  0.0000000000000D+00
   251  2.5000000000000D+00  0.0000000000000D+00  0.0000000000000D+00
   252  2.5100000000000D+00  0.0000000000000D+00  0.0000000000000D+00
   253  2.5200000000000D+00  0.0000000000000D+00  0.0000000000000D+00
   254  2.5300000000000D+00  0.0000000000000D+00  0.0000000000000D+00
   255  2.5400000000000D+00  0.0000000000000D+00  0.0000000000000D+00
   256  2.5500000000000D+00  0.0000000000000D+00  0.0000000000000D+00
   257  2.5600000000000D+00  0.0000000000000D+00  0.0000000000000D+00
   258  2.5700000000000D+00  0.0000000000000D+00  0.0000000000000D+00
   259  2.5800000000000D+00  0.0000000000000D+00  0.0000000000000D+00
   260  2.5900000000000D+00  0.0000000000000D+00  0.0000000000000D+00
   261  2.6000000000000D+00  0.0000000000000D+00  0.0000000000000D+00
   262  2.6100000000000D+00  0.0000000000000D+00  0.0000000000000D+00
   263  2.6200000000000D+00  0.0000000000000D+00  0.0000000000000D+00
   264  2.6300000000000D+00  0.0000000000000D+00  0.0000000000000D+00
   265  2.6400000000000D+00  0.0000000000000D+00  0.0000000000000D+00
   266  2.6500000000000D+00  0.0000000000000D+00  0.0000000000000D+00
   267  2.6600000000000D+00  0.0000000000000D+00  0.0000000000000D+00
   268  2.6700000000000D+00  0.0000000000000D+00  0.0000000000000D+00
   269  2.6800000000000D+00  0.0000000000000D+00  0.0000000000000D+00
   270  2.6900000000000D+00  0.0000000000000D+00  0.0000000000000D+00
   271  2.7000000000000D+00  0.0000000000000D+00  0.0000000000000D+00
   272  2.7100000000000D+00  0.0000000000000D+00  0.0000000000000D+00
   273  2.7200000000000D+00  0.0000000000000D+00  0.0000000000000D+00
   274  2.7300000000000D+00  0.0000000000000D+00  0.0000000000000D+00
   275  2.7400000000000D+00  0.0000000000000D+00  0.0000000000000D+00
   276  2.7500000000000D+00  0.0000000000000D+00  0.0000000000000D+00
   277  2.7600000000000D+00  0.0000000000000D+00  0.0000000000000D+00
   278  2.7700000000000D+00  0.0000000000000D+00  0.0000000000000D+00
   279  2.7800000000000D+00  0.0000000000000D+00  0.0000000000000D+00
   280  2.7900000000000D+00  0.0000000000000D+00  0.0000000000000D+00
   281  2.8000000000000D+00  0.0000000000000D+00  0.0000000000000D+00
   282  2.8100000000000D+00  0.0000000000000D+00  0.0000000000000D+00
   283  2.8200000000000D+00  0.0000000000000D+00  0.0000000000000D+00
   284  2.8300000000000D+00  0.0000000000000D+00  0.0000000000000D+00
   285  2.8400000000000D+00  0.0000000000000D+00  0.0000000000000D+00
   286  2.8500000000000D+00  0.0000000000000D+00  0.0000000000000D+00
   287  2.8600000000000D+00  0.0000000000000D+00  0.0000000000000D+00
   288  2.8700000000000D+00  0.0000000000000D+00  0.0000000000000D+00
   289  2.8800000000000D+00  0.0000000000000D+00  0.0000000000000D+00
   290  2.8900000000000D+00  0.0000000000000D+00  0.0000000000000D+00
   291  2.9000000000000D+00  0.0000000000000D+00  0.0000000000000D+00
   292  2.9100000000000D+00  0.0000000000000D+00  0.0000000000000D+00
   293  2.9200000000000D+00  0.0000000000000D+00  0.0000000000000D+00
   294  2.9300000000000D+00  0.0000000000000D+00  0.0000000000000D+00
   295  2.9400000000000D+00  0.0000000000000D+00  0.0000000000000D+00
   296  2.9500000000000D+00  0.0000000000000D+00  0.0000000000000D+00
   297  2.9600000000000D+00  0.0000000000000D+00  0.0000000000000D+00
   298  2.9700000000000D+00  0.0000000000000D+00  0.0000000000000D+00
   299  2.9800000000000D+00  0.0000000000000D+00  0.0000000000000D+00
   300  2.9900000000000D+00  0.0000000000000D+00  0.0000000000000D+00
   301  3.0000000000000D+00  0.0000000000000D+00  0.0000000000000D+00
   302  3.0100000000000D+00  0.0000000000000D+00  0.0000000000000D+00
   303  3.0200000000000D+00  0.0000000000000D+00  0.0000000000000D+00
   304  3.0300000000000D+00  0.0000000000000D+00  0.0000000000000D+00
   305  3.0400000000000D+00  0.0000000000000D+00  0.0000000000000D+00
   306  3.0500000000000D+00  0.0000000000000D+00  0.0000000000000D+00
   307  3.0600000000000D+00  0.0000000000000D+00  0.0000000000000D+00
   308  3.0700000000000D+00  0.0000000000000D+00  0.0000000000000D+00
   309  3.0800000000000D+00  0.0000000000000D+00  0.0000000000000D+00
   310  3.0900000000000D+00  0.0000000000000D+00  0.0000000000000D+00
   311  3.1000000000000D+00  0.0000000000000D+00  0.0000000000000D+00
   312  3.1100000000000D+00  0.0000000000000D+00  0.0000000000000D+00
   313  3.1200000000000D+00  0.0000000000000D+00  0.0000000000000D+00
   314  3.1300000000000D+00  0.0000000000000D+00  0.0000000000000D+00
   315  3.1400000000000D+00  0.0000000000000D+00  0.0000000000000D+00
   316  3.1500000000000D+00  0.0000000000000D+00  0.0000000000000D+00
   317  3.1600000000000D+00  0.0000000000000D+00  0.0000000000000D+00
   318  3.1700000000000D+00  0.0000000000000D+00  0.0000000000000D+00
   319  3.1800000000000D+00  0.0000000000000D+00  0.0000000000000D+00
   320  3.1900000000000D+00  0.0000000000000D+00  0.0000000000000D+00
   321  3.2000000000000D+00  0.0000000000000D+00  0.0000000000000D+00
   322  3.2100000000000D+00  0.0000000000000D+00  0.0000000000000D+00
   323  3.2200000000000D+00  0.0000000000000D+00  0.0000000000000D+00
   324  3.2300000000000D+00  0.0000000000000D+00  0.0000000000000D+00
   325  3.2400000000000D+00  0.0000000000000D+00  0.0000000000000D+00
   326  3.2500000000000D+00  0.0000000000000D+00  0.0000000000000D+00
   327  3.2600000000000D+00  0.0000000000000D+00  0.0000000000000D+00
   328  3.2700000000000D+00  0.0000000000000D+00  0.0000000000000D+00
   329  3.2800000000000D+00  0.0000000000000D+00  0.0000000000000D+00
   330  3.2900000000000D+00  0.0000000000000D+00  0.0000000000000D+00
   331  3.3000000000000D+00  0.0000000000000D+00  0.0000000000000D+00
   332  3.3100000000000D+00  0.0000000000000D+00  0.0000000000000D+00
   333  3.3200000000000D+00  0.0000000000000D+00  0.0000000000000D+00
   334  3.3300000000000D+00  0.0000000000000D+00  0.0000000000000D+00
   335  3.3400000000000D+00  0.0000000000000D+00  0.0000000000000D+00
   336  3.3500000000000D+00  0.0000000000000D+00  0.0000000000000D+00
   337  3.3600000000000D+00  0.0000000000000D+00  0.0000000000000D+00
   338  3.3700000000000D+00  0.0000000000000D+00  0.0000000000000D+00
   339  3.3800000000000D+00  0.0000000000000D+00  0.0000000000000D+00
   340  3.3900000000000D+00  0.0000000000000D+00  0.0000000000000D+00
   341  3.4000000000000D+00  0.0000000000000D+00  0.0000000000000D+00
   342  3.4100000000000D+00  0.0000000000000D+00  0.0000000000000D+00
   343  3.4200000000000D+00  0.0000000000000D+00  0.0000000000000D+00
   344  3.4300000000000D+00  0.0000000000000D+00  0.0000000000000D+00
   345  3.4400000000000D+00  0.0000000000000D+00  0.0000000000000D+00
   346  3.4500000000000D+00  0.0000000000000D+00  0.0000000000000D+00
   347  3.4600000000000D+00  0.0000000000000D+00  0.0000000000000D+00
   348  3.4700000000000D+00  0.0000000000000D+00  0.0000000000000D+00
   349  3.4800000000000D+00  0.0000000000000D+00  0.0000000000000D+00
   350  3.4900000000000D+00  0.0000000000000D+00  0.0000000000000D+00
   351  3.5000000000000D+00  0.0000000000000D+00  0.0000000000000D+00
   352  3.5100000000000D+00  0.0000000000000D+00  0.0000000000000D+00
   353  3.5200000000000D+00  0.0000000000000D+00  0.0000000000000D+00
   354  3.5300000000000D+00  0.0000000000000D+00  0.0000000000000D+00
   355  3.5400000000000D+00  0.0000000000000D+00  0.0000000000000D+00
   356  3.5500000000000D+00  0.0000000000000D+00  0.0000000000000D+00
   357  3.5600000000000D+00  0.0000000000000D+00  0.0000000000000D+00
   358  3.5700000000000D+00  0.0000000000000D+00  0.0000000000000D+00
   359  3.5800000000000D+00  0.0000000000000D+00  0.0000000000000D+00
   360  3.5900000000000D+00  0.0000000000000D+00  0.0000000000000D+00
   361  3.6000000000000D+00  0.0000000000000D+00  0.0000000000000D+00
   362  3.6100000000000D+00  0.0000000000000D+00  0.0000000000000D+00
   363  3.6200000000000D+00  0.0000000000000D+00  0.0000000000000D+00
   364  3.6300000000000D+00  0.0000000000000D+00  0.0000000000000D+00
   365  3.6400000000000D+00  0.0000000000000D+00  0.0000000000000D+00
   366  3.6500000000000D+00  0.0000000000000D+00  0.0000000000000D+00
   367  3.6600000000000D+00  0.0000000000000D+00  0.0000000000000D+00
   368  3.6700000000000D+00  0.0000000000000D+00  0.0000000000000D+00
   369  3.6800000000000D+00  0.0000000000000D+00  0.0000000000000D+00
   370  3.6900000000000D+00  0.0000000000000D+00  0.0000000000000D+00
   371  3.7000000000000D+00  0.0000000000000D+00  0.0000000000000D+00
   372  3.7100000000000D+00  0.0000000000000D+00  0.0000000000000D+00
   373  3.7200000000000D+00  0.0000000000000D+00  0.0000000000000D+00
   374  3.7300000000000D+00  0.0000000000000D+00  0.0000000000000D+00
   375  3.7400000000000D+00  0.0000000000000D+00  0.0000000000000D+00
   376  3.7500000000000D+00  0.0000000000000D+00  0.0000000000000D+00
   377  3.7600000000000D+00  0.0000000000000D+00  0.0000000000000D+00
   378  3.7700000000000D+00  0.0000000000000D+00  0.0000000000000D+00
   379  3.7800000000000D+00  0.0000000000000D+00  0.0000000000000D+00
   380  3.7900000000000D+00  0.0000000000000D+00  0.0000000000000D+00
   381  3.8000000000000D+00  0.0000000000000D+00  0.0000000000000D+00
   382  3.8100000000000D+00  0.0000000000000D+00  0.0000000000000D+00
   383  3.8200000000000D+00  0.0000000000000D+00  0.0000000000000D+00
   384  3.8300000000000D+00  0.0000000000000D+00  0.0000000000000D+00
   385  3.8400000000000D+00  0.0000000000000D+00  0.0000000000000D+00
   386  3.8500000000000D+00  0.0000000000000D+00  0.0000000000000D+00
   387  3.8600000000000D+00  0.0000000000000D+00  0.0000000000000D+00
   388  3.8700000000000D+00  0.0000000000000D+00  0.0000000000000D+00
   389  3.8800000000000D+00  0.0000000000000D+00  0.0000000000000D+00
   390  3.8900000000000D+00  0.0000000000000D+00  0.0000000000000D+00
   391  3.9000000000000D+00  0.0000000000000D+00  0.0000000000000D+00
   392  3.9100000000000D+00  0.0000000000000D+00  0.0000000000000D+00
   393  3.9200000000000D+00  0.0000000000000D+00  0.0000000000000D+00
   394  3.9300000000000D+00  0.0000000000000D+00  0.0000000000000D+00
   395  3.9400000000000D+00  0.0000000000000D+00  0.0000000000000D+00
   396  3.9500000000000D+00  0.0000000000000D+00  0.0000000000000D+00
   397  3.9600000000000D+00  0.0000000000000D+00  0.0000000000000D+00
   398  3.9700000000000D+00  0.0000000000000D+00  0.0000000000000D+00
   399  3.9800000000000D+00  0.0000000000000D+00  0.0000000000000D+00
   400  3.9900000000000D+00  0.0000000000000D+00  0.0000000000000D+00
   401  4.0000000000000D+00  0.0000000000000D+00  0.0000000000000D+00
   402  4.0100000000000D+00  0.0000000000000D+00  0.0000000000000D+00
   403  4.0200000000000D+00  0.0000000000000D+00  0.0000000000000D+00
   404  4.0300000000000D+00  0.0000000000000D+00  0.0000000000000D+00
   405  4.0400000000000D+00  0.0000000000000D+00  0.0000000000000D+00
   406  4.0500000000000D+00  0.0000000000000D+00  0.0000000000000D+00
   407  4.0600000000000D+00  0.0000000000000D+00  0.0000000000000D+00
   408  4.0700000000000D+00  0.0000000000000D+00  0.0000000000000D+00
   409  4.0800000000000D+00  0.0000000000000D+00  0.0000000000000D+00
   410  4.0900000000000D+00  0.0000000000000D+00  0.0000000000000D+00
   411  4.1000000000000D+00  0.0000000000000D+00  0.0000000000000D+00
   412  4.1100000000000D+00  0.0000000000000D+00  0.0000000000000D+00
   413  4.1200000000000D+00  0.0000000000000D+00  0.0000000000000D+00
   414  4.1300000000000D+00  0.0000000000000D+00  0.0000000000000D+00
   415  4.1400000000000D+00  0.0000000000000D+00  0.0000000000000D+00
   416  4.1500000000000D+00  0.0000000000000D+00  0.0000000000000D+00
   417  4.1600000000000D+00  0.0000000000000D+00  0.0000000000000D+00
   418  4.1700000000000D+00  0.0000000000000D+00  0.0000000000000D+00
   419  4.1800000000000D+00  0.0000000000000D+00  0.0000000000000D+00
   420  4.1900000000000D+00  0.0000000000000D+00  0.0000000000000D+00
   421  4.2000000000000D+00  0.0000000000000D+00  0.0000000000000D+00
   422  4.2100000000000D+00  0.0000000000000D+00  0.0000000000000D+00