Tb    ONCVPSP-3.3.0  r_core=   1.81238   1.51545   1.66719   1.70744
     65.0000     19.0000      220408    zatom,zion,pspd
     8       2   3     4   600     0    pspcod,pspxc,lmax,lloc,mmax,r2well
  5.99000000  0.00000000  0.00000000    rchrg fchrg qchrg
     2     2     2     2     0    nproj
     1     1           extension_switch
   0                         8.8156902084001D+00  5.7885011783352D-01
     1  0.0000000000000D+00 -4.4137582477788D-11  3.2422081686079D-10
     2  1.0000000000000D-02  4.6915843250625D-02 -2.2656499463967D-02
     3  2.0000000000000D-02  9.3775473863514D-02 -4.5183693189221D-02
     4  3.0000000000000D-02  1.4052281373697D-01 -6.7453252116022D-02
     5  4.0000000000000D-02  1.8710205279324D-01 -8.9338791527519D-02
     6  5.0000000000000D-02  2.3345778038157D-01 -1.1071682076639D-01
     7  6.0000000000000D-02  2.7953511358184D-01 -1.3146766623676D-01
     8  7.0000000000000D-02  3.2527982142829D-01 -1.5147635916971D-01
     9  8.0000000000000D-02  3.7063844411620D-01 -1.7063347995474D-01
    10  9.0000000000000D-02  4.1555840630943D-01 -1.8883595123959D-01
    11  1.0000000000000D-01  4.5998812373033D-01 -2.0598777247373D-01
    12  1.1000000000000D-01  5.0387710228685D-01 -2.2200068911121D-01
    13  1.2000000000000D-01  5.4717602907314D-01 -2.3679479029418D-01
    14  1.3000000000000D-01  5.8983685466905D-01 -2.5029902950102D-01
    15  1.4000000000000D-01  6.3181286625964D-01 -2.6245166336029D-01
    16  1.5000000000000D-01  6.7305875119739D-01 -2.7320060459406D-01
    17  1.6000000000000D-01  7.1353065073608D-01 -2.8250368585803D-01
    18  1.7000000000000D-01  7.5318620377505D-01 -2.9032883208181D-01
    19  1.8000000000000D-01  7.9198458056519D-01 -2.9665413977478D-01
    20  1.9000000000000D-01  8.2988650644176D-01 -3.0146786264300D-01
    21  2.0000000000000D-01  8.6685427576302D-01 -3.0476830375305D-01
    22  2.1000000000000D-01  9.0285175634680D-01 -3.0656361537064D-01
    23  2.2000000000000D-01  9.3784438480790D-01 -3.0687150848859D-01
    24  2.3000000000000D-01  9.7179915330634D-01 -3.0571887493109D-01
    25  2.4000000000000D-01  1.0046845883193D+00 -3.0314132577060D-01
    26  2.5000000000000D-01  1.0364707221462D+00 -2.9918265061443D-01
    27  2.6000000000000D-01  1.0671290579474D+00 -2.9389420309885D-01
    28  2.7000000000000D-01  1.0966325291960D+00 -2.8733421866521D-01
    29  2.8000000000000D-01  1.1249554544988D+00 -2.7956707137517D-01
    30  2.9000000000000D-01  1.1520734888030D+00 -2.7066247714578D-01
    31  3.0000000000000D-01  1.1779635720557D+00 -2.6069465134162D-01
    32  3.1000000000000D-01  1.2026038764282D+00 -2.4974142914651D-01
    33  3.2000000000000D-01  1.2259737532389D+00 -2.3788335754367D-01
    34  3.3000000000000D-01  1.2480536807277D+00 -2.2520276805918D-01
    35  3.4000000000000D-01  1.2688252138356D+00 -2.1178283966105D-01
    36  3.5000000000000D-01  1.2882709371283D+00 -1.9770666135611D-01
    37  3.6000000000000D-01  1.3063744219805D+00 -1.8305630408329D-01
    38  3.7000000000000D-01  1.3231201890930D+00 -1.6791191146523D-01
    39  3.8000000000000D-01  1.3384936773647D+00 -1.5235081884872D-01
    40  3.9000000000000D-01  1.3524812200705D+00 -1.3644670983833D-01
    41  4.0000000000000D-01  1.3650700292183D+00 -1.2026881920830D-01
    42  4.1000000000000D-01  1.3762481888606D+00 -1.0388119066623D-01
    43  4.2000000000000D-01  1.3860046580351D+00 -8.7341997442555D-02
    44  4.3000000000000D-01  1.3943292838880D+00 -7.0702933094054D-02
    45  4.4000000000000D-01  1.4012128254089D+00 -5.4008679244419D-02
    46  4.5000000000000D-01  1.4066469880689D+00 -3.7296456244108D-02
    47  4.6000000000000D-01  1.4106244695095D+00 -2.0595661922191D-02
    48  4.7000000000000D-01  1.4131390162806D+00 -3.9276027325955D-03
    49  4.8000000000000D-01  1.4141854914698D+00  1.2694679327433D-02
    50  4.9000000000000D-01  1.4137599529050D+00  2.9266481618144D-02
    51  5.0000000000000D-01  1.4118597414561D+00  4.5791416173217D-02
    52  5.1000000000000D-01  1.4084835787965D+00  6.2281285057753D-02
    53  5.2000000000000D-01  1.4036316738300D+00  7.8755856441486D-02
    54  5.3000000000000D-01  1.3973058368341D+00  9.5242543111193D-02
    55  5.4000000000000D-01  1.3895096002205D+00  1.1177598619140D-01
    56  5.5000000000000D-01  1.3802483446733D+00  1.2839754787099D-01
    57  5.6000000000000D-01  1.3695294292945D+00  1.4515471793159D-01
    58  5.7000000000000D-01  1.3573623242645D+00  1.6210043983551D-01
    59  5.8000000000000D-01  1.3437587444200D+00  1.7929236303870D-01
    60  5.9000000000000D-01  1.3287327820566D+00  1.9679202904527D-01
    61  6.0000000000000D-01  1.3123010371912D+00  2.1466399949494D-01
    62  6.1000000000000D-01  1.2944827434563D+00  2.3297493527396D-01
    63  6.2000000000000D-01  1.2752998877644D+00  2.5179263624489D-01
    64  6.3000000000000D-01  1.2547773218577D+00  2.7118505169988D-01
    65  6.4000000000000D-01  1.2329428638634D+00  2.9121927204547D-01
    66  6.5000000000000D-01  1.2098273879997D+00  3.1196051251792D-01
    67  6.6000000000000D-01  1.1854649006215D+00  3.3347109990282D-01
    68  6.7000000000000D-01  1.1598926008714D+00  3.5580947328633D-01
    69  6.8000000000000D-01  1.1331509242868D+00  3.7902920979634D-01
    70  6.9000000000000D-01  1.1052835678358D+00  4.0317808609594D-01
    71  7.0000000000000D-01  1.0763374949896D+00  4.2829718607379D-01
    72  7.1000000000000D-01  1.0463629195990D+00  4.5442006473185D-01
    73  7.2000000000000D-01  1.0154132675221D+00  4.8157197771162D-01
    74  7.3000000000000D-01  9.8354511514807D-01  5.0976918521879D-01
    75  7.4000000000000D-01  9.5081810418128D-01  5.3901833832244D-01
    76  7.5000000000000D-01  9.1729483227546D-01  5.6931595471471D-01
    77  7.6000000000000D-01  8.8304071935831D-01  6.0064799003675D-01
    78  7.7000000000000D-01  8.4812384973870D-01  6.3298950981326D-01
    79  7.8000000000000D-01  8.1261479035341D-01  6.6630446590713D-01
    80  7.9000000000000D-01  7.7658638578008D-01  7.0054558021120D-01
    81  8.0000000000000D-01  7.4011353091382D-01  7.3565433706336D-01
    82  8.1000000000000D-01  7.0327292247562D-01  7.7156108460959D-01
    83  8.2000000000000D-01  6.6614279078729D-01  8.0818524406357D-01
    84  8.3000000000000D-01  6.2880261350635D-01  8.4543562454324D-01
    85  8.4000000000000D-01  5.9133281326174D-01  8.8321083991509D-01
    86  8.5000000000000D-01  5.5381444136483D-01  9.2139982286657D-01
    87  8.6000000000000D-01  5.1632884998461D-01  9.5988243027168D-01
    88  8.7000000000000D-01  4.7895735537028D-01  9.9853013283271D-01
    89  8.8000000000000D-01  4.4178089487277D-01  1.0372067809871D+00
    90  8.9000000000000D-01  4.0487968065811D-01  1.0757694381808D+00
    91  9.0000000000000D-01  3.6833285311597D-01  1.1140692718402D+00
    92  9.1000000000000D-01  3.3221813704334D-01  1.1519524917432D+00
    93  9.2000000000000D-01  2.9661150372477D-01  1.1892613250000D+00
    94  9.3000000000000D-01  2.6158684203376D-01  1.2258350165285D+00
    95  9.4000000000000D-01  2.2721564164393D-01  1.2615108437436D+00
    96  9.5000000000000D-01  1.9356669136158D-01  1.2961251341982D+00
    97  9.6000000000000D-01  1.6070579547247D-01  1.3295142751021D+00
    98  9.7000000000000D-01  1.2869551083823D-01  1.3615157040185D+00
    99  9.8000000000000D-01  9.7594907272559D-02  1.3919688706006D+00
   100  9.9000000000000D-01  6.7459353488030D-02  1.4207161599664D+00
   101  1.0000000000000D+00  3.8340330621427D-02  1.4476037692215D+00
   102  1.0100000000000D+00  1.0285275027251D-02  1.4724825297227D+00
   103  1.0200000000000D+00 -1.6662548324183D-02  1.4952086689037D+00
   104  1.0300000000000D+00 -4.2464140904956D-02  1.5156445069120D+00
   105  1.0400000000000D+00 -6.7084833587586D-02  1.5336590846879D+00
   106  1.0500000000000D+00 -9.0494317426107D-02  1.5491287218896D+00
   107  1.0600000000000D+00 -1.1266664261091D-01  1.5619375046475D+00
   108  1.0700000000000D+00 -1.3358018642628D-01  1.5719777049207D+00
   109  1.0800000000000D+00 -1.5321759154072D-01  1.5791501350900D+00
   110  1.0900000000000D+00 -1.7156567638236D-01  1.5833644429988D+00
   111  1.1000000000000D+00 -1.8861531989544D-01  1.5845393546671D+00
   112  1.1100000000000D+00 -2.0436132339411D-01  1.5826028734354D+00
   113  1.1200000000000D+00 -2.1880225269243D-01  1.5774924459617D+00
   114  1.1300000000000D+00 -2.3194026408234D-01  1.5691551068639D+00
   115  1.1400000000000D+00 -2.4378091811220D-01  1.5575476151022D+00
   116  1.1500000000000D+00 -2.5433298548277D-01  1.5426365963453D+00
   117  1.1600000000000D+00 -2.6360824962292D-01  1.5243987062196D+00
   118  1.1700000000000D+00 -2.7162131071194D-01  1.5028208298058D+00
   119  1.1800000000000D+00 -2.7838939609870D-01  1.4779003330572D+00
   120  1.1900000000000D+00 -2.8393218212361D-01  1.4496453814799D+00
   121  1.2000000000000D+00 -2.8827163224504D-01  1.4180753403148D+00
   122  1.2100000000000D+00 -2.9143185638463D-01  1.3832212701946D+00
   123  1.2200000000000D+00 -2.9343899608043D-01  1.3451265297976D+00
   124  1.2300000000000D+00 -2.9432113961220D-01  1.3038474945284D+00
   125  1.2400000000000D+00 -2.9410827093651D-01  1.2594543982188D+00
   126  1.2500000000000D+00 -2.9283225567827D-01  1.2120323013148D+00
   127  1.2600000000000D+00 -2.9052686633160D-01  1.1616821830321D+00
   128  1.2700000000000D+00 -2.8722784820990D-01  1.1085221516518D+00
   129  1.2800000000000D+00 -2.8297302688337D-01  1.0526887626631D+00
   130  1.2900000000000D+00 -2.7780245561878D-01  9.9433842278003D-01
   131  1.3000000000000D+00 -2.7175860078597D-01  9.3364885501771D-01
   132  1.3100000000000D+00 -2.6488656188121D-01  8.7082059301068D-01
   133  1.3200000000000D+00 -2.5723431906506D-01  8.0607845347247D-01
   134  1.3300000000000D+00 -2.4885300150823D-01  7.3967293773111D-01
   135  1.3400000000000D+00 -2.3979716676857D-01  6.7188149741470D-01
   136  1.3500000000000D+00 -2.3012507621783D-01  6.0300957291997D-01
   137  1.3600000000000D+00 -2.1989895467214D-01  5.3339132919962D-01
   138  1.3700000000000D+00 -2.0918521356701D-01  4.6338996853762D-01
   139  1.3800000000000D+00 -1.9805461473746D-01  3.9339748849730D-01
   140  1.3900000000000D+00 -1.8658235475798D-01  3.2383376783228D-01
   141  1.4000000000000D+00 -1.7484803372743D-01  2.5514478167702D-01
   142  1.4100000000000D+00 -1.6293548061614D-01  1.8779978906284D-01
   143  1.4200000000000D+00 -1.5093239693341D-01  1.2228728332190D-01
   144  1.4300000000000D+00 -1.3892976920156D-01  5.9109438641844D-02
   145  1.4400000000000D+00 -1.2702101579250D-01 -1.2251373352312D-03
   146  1.4500000000000D+00 -1.1530079824952D-01 -5.8210715034003D-02
   147  1.4600000000000D+00 -1.0386345110116D-01 -1.1135606740620D-01
   148  1.4700000000000D+00 -9.2800929767603D-02 -1.6019898972901D-01
   149  1.4800000000000D+00 -8.2200385577865D-02 -2.0432279536819D-01
   150  1.4900000000000D+00 -7.2140564031287D-02 -2.4338034188671D-01
   151  1.5000000000000D+00 -6.2689541557012D-02 -2.7710785096884D-01
   152  1.5100000000000D+00 -5.3896981441801D-02 -3.0537580799185D-01
   153  1.5200000000000D+00 -4.5789832184426D-02 -3.2821511561156D-01
   154  1.5300000000000D+00 -3.8376456892970D-02 -3.4578022512757D-01
   155  1.5400000000000D+00 -3.1650913647203D-02 -3.5831441347943D-01
   156  1.5500000000000D+00 -2.5599046129785D-02 -3.6610435226943D-01
   157  1.5600000000000D+00 -2.0202723397220D-02 -3.6945021239120D-01
   158  1.5700000000000D+00 -1.5450130044097D-02 -3.6859748153194D-01
   159  1.5800000000000D+00 -1.1326924390633D-02 -3.6379730752687D-01
   160  1.5900000000000D+00 -7.7950556786834D-03 -3.5545212414127D-01
   161  1.6000000000000D+00 -4.8095591207812D-03 -3.4400053572653D-01
   162  1.6100000000000D+00 -2.3350346854458D-03 -3.2980415167600D-01
   163  1.6200000000000D+00 -3.3495285682196D-04 -3.1322227999280D-01
   164  1.6300000000000D+00  1.2321320007460D-03 -2.9463904563413D-01
   165  1.6400000000000D+00  2.4087261606959D-03 -2.7443727794824D-01
   166  1.6500000000000D+00  3.2378826116976D-03 -2.5299561593025D-01
   167  1.6600000000000D+00  3.7631135723665D-03 -2.3068866301054D-01
   168  1.6700000000000D+00  4.0277330102972D-03 -2.0788314741833D-01
   169  1.6800000000000D+00  4.0743504206028D-03 -1.8493513151402D-01
   170  1.6900000000000D+00  3.9443555808045D-03 -1.6218714879487D-01
   171  1.7000000000000D+00  3.6774260818187D-03 -1.3996547916664D-01
   172  1.7100000000000D+00  3.3110566938632D-03 -1.1857755133271D-01
   173  1.7200000000000D+00  2.8801159835846D-03 -9.8309501163624D-02
   174  1.7300000000000D+00  2.4164319779441D-03 -7.9423895604653D-02
   175  1.7400000000000D+00  1.9484128843412D-03 -6.2157654217154D-02
   176  1.7500000000000D+00  1.5007825911401D-03 -4.6722450554245D-02
   177  1.7600000000000D+00  1.0943183948904D-03 -3.3304209410985D-02
   178  1.7700000000000D+00  7.4403640942092D-04 -2.2018167873124D-02
   179  1.7800000000000D+00  4.5989438233832D-04 -1.2948187241659D-02
   180  1.7900000000000D+00  2.5772353002771D-04 -6.3821482030119D-03
   181  1.8000000000000D+00  1.4442949357162D-04 -2.4369140961251D-03
   182  1.8100000000000D+00  8.6908498439895D-05 -5.4992704197761D-04
   183  1.8200000000000D+00  4.4186628094705D-05  6.1351484720042D-05
   184  1.8300000000000D+00  9.9882080157905D-06  5.8597590246994D-05
   185  1.8400000000000D+00 -5.1046116685860D-06 -4.2721024022822D-05
   186  1.8500000000000D+00 -3.6363705519596D-06 -3.8479716083164D-05
   187  1.8600000000000D+00  8.4722274268048D-07  4.5291598923491D-06
   188  1.8700000000000D+00  1.2082718524742D-06  7.4523589517302D-06
   189  1.8800000000000D+00 -5.6771483388151D-08  2.3685257551647D-07
   190  1.8900000000000D+00 -2.1766315307662D-07  9.0809813879183D-07
   191  1.9000000000000D+00 -2.7206838807027D-08  1.1350786448625D-07
   192  1.9100000000000D+00  0.0000000000000D+00  0.0000000000000D+00
   193  1.9200000000000D+00  0.0000000000000D+00  0.0000000000000D+00
   194  1.9300000000000D+00  0.0000000000000D+00  0.0000000000000D+00
   195  1.9400000000000D+00  0.0000000000000D+00  0.0000000000000D+00
   196  1.9500000000000D+00  0.0000000000000D+00  0.0000000000000D+00
   197  1.9600000000000D+00  0.0000000000000D+00  0.0000000000000D+00
   198  1.9700000000000D+00  0.0000000000000D+00  0.0000000000000D+00
   199  1.9800000000000D+00  0.0000000000000D+00  0.0000000000000D+00
   200  1.9900000000000D+00  0.0000000000000D+00  0.0000000000000D+00
   201  2.0000000000000D+00  0.0000000000000D+00  0.0000000000000D+00
   202  2.0100000000000D+00  0.0000000000000D+00  0.0000000000000D+00
   203  2.0200000000000D+00  0.0000000000000D+00  0.0000000000000D+00
   204  2.0300000000000D+00  0.0000000000000D+00  0.0000000000000D+00
   205  2.0400000000000D+00  0.0000000000000D+00  0.0000000000000D+00
   206  2.0500000000000D+00  0.0000000000000D+00  0.0000000000000D+00
   207  2.0600000000000D+00  0.0000000000000D+00  0.0000000000000D+00
   208  2.0700000000000D+00  0.0000000000000D+00  0.0000000000000D+00
   209  2.0800000000000D+00  0.0000000000000D+00  0.0000000000000D+00
   210  2.0900000000000D+00  0.0000000000000D+00  0.0000000000000D+00
   211  2.1000000000000D+00  0.0000000000000D+00  0.0000000000000D+00
   212  2.1100000000000D+00  0.0000000000000D+00  0.0000000000000D+00
   213  2.1200000000000D+00  0.0000000000000D+00  0.0000000000000D+00
   214  2.1300000000000D+00  0.0000000000000D+00  0.0000000000000D+00
   215  2.1400000000000D+00  0.0000000000000D+00  0.0000000000000D+00
   216  2.1500000000000D+00  0.0000000000000D+00  0.0000000000000D+00
   217  2.1600000000000D+00  0.0000000000000D+00  0.0000000000000D+00
   218  2.1700000000000D+00  0.0000000000000D+00  0.0000000000000D+00
   219  2.1800000000000D+00  0.0000000000000D+00  0.0000000000000D+00
   220  2.1900000000000D+00  0.0000000000000D+00  0.0000000000000D+00
   221  2.2000000000000D+00  0.0000000000000D+00  0.0000000000000D+00
   222  2.2100000000000D+00  0.0000000000000D+00  0.0000000000000D+00
   223  2.2200000000000D+00  0.0000000000000D+00  0.0000000000000D+00
   224  2.2300000000000D+00  0.0000000000000D+00  0.0000000000000D+00
   225  2.2400000000000D+00  0.0000000000000D+00  0.0000000000000D+00
   226  2.2500000000000D+00  0.0000000000000D+00  0.0000000000000D+00
   227  2.2600000000000D+00  0.0000000000000D+00  0.0000000000000D+00
   228  2.2700000000000D+00  0.0000000000000D+00  0.0000000000000D+00
   229  2.2800000000000D+00  0.0000000000000D+00  0.0000000000000D+00
   230  2.2900000000000D+00  0.0000000000000D+00  0.0000000000000D+00
   231  2.3000000000000D+00  0.0000000000000D+00  0.0000000000000D+00
   232  2.3100000000000D+00  0.0000000000000D+00  0.0000000000000D+00
   233  2.3200000000000D+00  0.0000000000000D+00  0.0000000000000D+00
   234  2.3300000000000D+00  0.0000000000000D+00  0.0000000000000D+00
   235  2.3400000000000D+00  0.0000000000000D+00  0.0000000000000D+00
   236  2.3500000000000D+00  0.0000000000000D+00  0.0000000000000D+00
   237  2.3600000000000D+00  0.0000000000000D+00  0.0000000000000D+00
   238  2.3700000000000D+00  0.0000000000000D+00  0.0000000000000D+00
   239  2.3800000000000D+00  0.0000000000000D+00  0.0000000000000D+00
   240  2.3900000000000D+00  0.0000000000000D+00  0.0000000000000D+00
   241  2.4000000000000D+00  0.0000000000000D+00  0.0000000000000D+00
   242  2.4100000000000D+00  0.0000000000000D+00  0.0000000000000D+00
   243  2.4200000000000D+00  0.0000000000000D+00  0.0000000000000D+00
   244  2.4300000000000D+00  0.0000000000000D+00  0.0000000000000D+00
   245  2.4400000000000D+00  0.0000000000000D+00  0.0000000000000D+00
   246  2.4500000000000D+00  0.0000000000000D+00  0.0000000000000D+00
   247  2.4600000000000D+00  0.0000000000000D+00  0.0000000000000D+00
   248  2.4700000000000D+00  0.0000000000000D+00  0.0000000000000D+00
   249  2.4800000000000D+00  0.0000000000000D+00  0.0000000000000D+00
   250  2.4900000000000D+00  0.0000000000000D+00  0.0000000000000D+00
   251  2.5000000000000D+00  0.0000000000000D+00  0.0000000000000D+00
   252  2.5100000000000D+00  0.0000000000000D+00  0.0000000000000D+00
   253  2.5200000000000D+00  0.0000000000000D+00  0.0000000000000D+00
   254  2.5300000000000D+00  0.0000000000000D+00  0.0000000000000D+00
   255  2.5400000000000D+00  0.0000000000000D+00  0.0000000000000D+00
   256  2.5500000000000D+00  0.0000000000000D+00  0.0000000000000D+00
   257  2.5600000000000D+00  0.0000000000000D+00  0.0000000000000D+00
   258  2.5700000000000D+00  0.0000000000000D+00  0.0000000000000D+00
   259  2.5800000000000D+00  0.0000000000000D+00  0.0000000000000D+00
   260  2.5900000000000D+00  0.0000000000000D+00  0.0000000000000D+00
   261  2.6000000000000D+00  0.0000000000000D+00  0.0000000000000D+00
   262  2.6100000000000D+00  0.0000000000000D+00  0.0000000000000D+00
   263  2.6200000000000D+00  0.0000000000000D+00  0.0000000000000D+00
   264  2.6300000000000D+00  0.0000000000000D+00  0.0000000000000D+00
   265  2.6400000000000D+00  0.0000000000000D+00  0.0000000000000D+00
   266  2.6500000000000D+00  0.0000000000000D+00  0.0000000000000D+00
   267  2.6600000000000D+00  0.0000000000000D+00  0.0000000000000D+00
   268  2.6700000000000D+00  0.0000000000000D+00  0.0000000000000D+00
   269  2.6800000000000D+00  0.0000000000000D+00  0.0000000000000D+00
   270  2.6900000000000D+00  0.0000000000000D+00  0.0000000000000D+00
   271  2.7000000000000D+00  0.0000000000000D+00  0.0000000000000D+00
   272  2.7100000000000D+00  0.0000000000000D+00  0.0000000000000D+00
   273  2.7200000000000D+00  0.0000000000000D+00  0.0000000000000D+00
   274  2.7300000000000D+00  0.0000000000000D+00  0.0000000000000D+00
   275  2.7400000000000D+00  0.0000000000000D+00  0.0000000000000D+00
   276  2.7500000000000D+00  0.0000000000000D+00  0.0000000000000D+00
   277  2.7600000000000D+00  0.0000000000000D+00  0.0000000000000D+00
   278  2.7700000000000D+00  0.0000000000000D+00  0.0000000000000D+00
   279  2.7800000000000D+00  0.0000000000000D+00  0.0000000000000D+00
   280  2.7900000000000D+00  0.0000000000000D+00  0.0000000000000D+00
   281  2.8000000000000D+00  0.0000000000000D+00  0.0000000000000D+00
   282  2.8100000000000D+00  0.0000000000000D+00  0.0000000000000D+00
   283  2.8200000000000D+00  0.0000000000000D+00  0.0000000000000D+00
   284  2.8300000000000D+00  0.0000000000000D+00  0.0000000000000D+00
   285  2.8400000000000D+00  0.0000000000000D+00  0.0000000000000D+00
   286  2.8500000000000D+00  0.0000000000000D+00  0.0000000000000D+00
   287  2.8600000000000D+00  0.0000000000000D+00  0.0000000000000D+00
   288  2.8700000000000D+00  0.0000000000000D+00  0.0000000000000D+00
   289  2.8800000000000D+00  0.0000000000000D+00  0.0000000000000D+00
   290  2.8900000000000D+00  0.0000000000000D+00  0.0000000000000D+00
   291  2.9000000000000D+00  0.0000000000000D+00  0.0000000000000D+00
   292  2.9100000000000D+00  0.0000000000000D+00  0.0000000000000D+00
   293  2.9200000000000D+00  0.0000000000000D+00  0.0000000000000D+00
   294  2.9300000000000D+00  0.0000000000000D+00  0.0000000000000D+00
   295  2.9400000000000D+00  0.0000000000000D+00  0.0000000000000D+00
   296  2.9500000000000D+00  0.0000000000000D+00  0.0000000000000D+00
   297  2.9600000000000D+00  0.0000000000000D+00  0.0000000000000D+00
   298  2.9700000000000D+00  0.0000000000000D+00  0.0000000000000D+00
   299  2.9800000000000D+00  0.0000000000000D+00  0.0000000000000D+00
   300  2.9900000000000D+00  0.0000000000000D+00  0.0000000000000D+00
   301  3.0000000000000D+00  0.0000000000000D+00  0.0000000000000D+00
   302  3.0100000000000D+00  0.0000000000000D+00  0.0000000000000D+00
   303  3.0200000000000D+00  0.0000000000000D+00  0.0000000000000D+00
   304  3.0300000000000D+00  0.0000000000000D+00  0.0000000000000D+00
   305  3.0400000000000D+00  0.0000000000000D+00  0.0000000000000D+00
   306  3.0500000000000D+00  0.0000000000000D+00  0.0000000000000D+00
   307  3.0600000000000D+00  0.0000000000000D+00  0.0000000000000D+00
   308  3.0700000000000D+00  0.0000000000000D+00  0.0000000000000D+00
   309  3.0800000000000D+00  0.0000000000000D+00  0.0000000000000D+00
   310  3.0900000000000D+00  0.0000000000000D+00  0.0000000000000D+00
   311  3.1000000000000D+00  0.0000000000000D+00  0.0000000000000D+00
   312  3.1100000000000D+00  0.0000000000000D+00  0.0000000000000D+00
   313  3.1200000000000D+00  0.0000000000000D+00  0.0000000000000D+00
   314  3.1300000000000D+00  0.0000000000000D+00  0.0000000000000D+00
   315  3.1400000000000D+00  0.0000000000000D+00  0.0000000000000D+00
   316  3.1500000000000D+00  0.0000000000000D+00  0.0000000000000D+00
   317  3.1600000000000D+00  0.0000000000000D+00  0.0000000000000D+00
   318  3.1700000000000D+00  0.0000000000000D+00  0.0000000000000D+00
   319  3.1800000000000D+00  0.0000000000000D+00  0.0000000000000D+00
   320  3.1900000000000D+00  0.0000000000000D+00  0.0000000000000D+00
   321  3.2000000000000D+00  0.0000000000000D+00  0.0000000000000D+00
   322  3.2100000000000D+00  0.0000000000000D+00  0.0000000000000D+00
   323  3.2200000000000D+00  0.0000000000000D+00  0.0000000000000D+00
   324  3.2300000000000D+00  0.0000000000000D+00  0.0000000000000D+00
   325  3.2400000000000D+00  0.0000000000000D+00  0.0000000000000D+00
   326  3.2500000000000D+00  0.0000000000000D+00  0.0000000000000D+00
   327  3.2600000000000D+00  0.0000000000000D+00  0.0000000000000D+00
   328  3.2700000000000D+00  0.0000000000000D+00  0.0000000000000D+00
   329  3.2800000000000D+00  0.0000000000000D+00  0.0000000000000D+00
   330  3.2900000000000D+00  0.0000000000000D+00  0.0000000000000D+00
   331  3.3000000000000D+00  0.0000000000000D+00  0.0000000000000D+00
   332  3.3100000000000D+00  0.0000000000000D+00  0.0000000000000D+00
   333  3.3200000000000D+00  0.0000000000000D+00  0.0000000000000D+00
   334  3.3300000000000D+00  0.0000000000000D+00  0.0000000000000D+00
   335  3.3400000000000D+00  0.0000000000000D+00  0.0000000000000D+00
   336  3.3500000000000D+00  0.0000000000000D+00  0.0000000000000D+00
   337  3.3600000000000D+00  0.0000000000000D+00  0.0000000000000D+00
   338  3.3700000000000D+00  0.0000000000000D+00  0.0000000000000D+00
   339  3.3800000000000D+00  0.0000000000000D+00  0.0000000000000D+00
   340  3.3900000000000D+00  0.0000000000000D+00  0.0000000000000D+00
   341  3.4000000000000D+00  0.0000000000000D+00  0.0000000000000D+00
   342  3.4100000000000D+00  0.0000000000000D+00  0.0000000000000D+00
   343  3.4200000000000D+00  0.0000000000000D+00  0.0000000000000D+00
   344  3.4300000000000D+00  0.0000000000000D+00  0.0000000000000D+00
   345  3.4400000000000D+00  0.0000000000000D+00  0.0000000000000D+00
   346  3.4500000000000D+00  0.0000000000000D+00  0.0000000000000D+00
   347  3.4600000000000D+00  0.0000000000000D+00  0.0000000000000D+00
   348  3.4700000000000D+00  0.0000000000000D+00  0.0000000000000D+00
   349  3.4800000000000D+00  0.0000000000000D+00  0.0000000000000D+00
   350  3.4900000000000D+00  0.0000000000000D+00  0.0000000000000D+00
   351  3.5000000000000D+00  0.0000000000000D+00  0.0000000000000D+00
   352  3.5100000000000D+00  0.0000000000000D+00  0.0000000000000D+00
   353  3.5200000000000D+00  0.0000000000000D+00  0.0000000000000D+00
   354  3.5300000000000D+00  0.0000000000000D+00  0.0000000000000D+00
   355  3.5400000000000D+00  0.0000000000000D+00  0.0000000000000D+00
   356  3.5500000000000D+00  0.0000000000000D+00  0.0000000000000D+00
   357  3.5600000000000D+00  0.0000000000000D+00  0.0000000000000D+00
   358  3.5700000000000D+00  0.0000000000000D+00  0.0000000000000D+00
   359  3.5800000000000D+00  0.0000000000000D+00  0.0000000000000D+00
   360  3.5900000000000D+00  0.0000000000000D+00  0.0000000000000D+00
   361  3.6000000000000D+00  0.0000000000000D+00  0.0000000000000D+00
   362  3.6100000000000D+00  0.0000000000000D+00  0.0000000000000D+00
   363  3.6200000000000D+00  0.0000000000000D+00  0.0000000000000D+00
   364  3.6300000000000D+00  0.0000000000000D+00  0.0000000000000D+00
   365  3.6400000000000D+00  0.0000000000000D+00  0.0000000000000D+00
   366  3.6500000000000D+00  0.0000000000000D+00  0.0000000000000D+00
   367  3.6600000000000D+00  0.0000000000000D+00  0.0000000000000D+00
   368  3.6700000000000D+00  0.0000000000000D+00  0.0000000000000D+00
   369  3.6800000000000D+00  0.0000000000000D+00  0.0000000000000D+00
   370  3.6900000000000D+00  0.0000000000000D+00  0.0000000000000D+00
   371  3.7000000000000D+00  0.0000000000000D+00  0.0000000000000D+00
   372  3.7100000000000D+00  0.0000000000000D+00  0.0000000000000D+00
   373  3.7200000000000D+00  0.0000000000000D+00  0.0000000000000D+00
   374  3.7300000000000D+00  0.0000000000000D+00  0.0000000000000D+00
   375  3.7400000000000D+00  0.0000000000000D+00  0.0000000000000D+00
   376  3.7500000000000D+00  0.0000000000000D+00  0.0000000000000D+00
   377  3.7600000000000D+00  0.0000000000000D+00  0.0000000000000D+00
   378  3.7700000000000D+00  0.0000000000000D+00  0.0000000000000D+00
   379  3.7800000000000D+00  0.0000000000000D+00  0.0000000000000D+00
   380  3.7900000000000D+00  0.0000000000000D+00  0.0000000000000D+00
   381  3.8000000000000D+00  0.0000000000000D+00  0.0000000000000D+00
   382  3.8100000000000D+00  0.0000000000000D+00  0.0000000000000D+00
   383  3.8200000000000D+00  0.0000000000000D+00  0.0000000000000D+00
   384  3.8300000000000D+00  0.0000000000000D+00  0.0000000000000D+00
   385  3.8400000000000D+00  0.0000000000000D+00  0.0000000000000D+00
   386  3.8500000000000D+00  0.0000000000000D+00  0.0000000000000D+00
   387  3.8600000000000D+00  0.0000000000000D+00  0.0000000000000D+00
   388  3.8700000000000D+00  0.0000000000000D+00  0.0000000000000D+00
   389  3.8800000000000D+00  0.0000000000000D+00  0.0000000000000D+00
   390  3.8900000000000D+00  0.0000000000000D+00  0.0000000000000D+00
   391  3.9000000000000D+00  0.0000000000000D+00  0.0000000000000D+00
   392  3.9100000000000D+00  0.0000000000000D+00  0.0000000000000D+00
   393  3.9200000000000D+00  0.0000000000000D+00  0.0000000000000D+00
   394  3.9300000000000D+00  0.0000000000000D+00  0.0000000000000D+00
   395  3.9400000000000D+00  0.0000000000000D+00  0.0000000000000D+00
   396  3.9500000000000D+00  0.0000000000000D+00  0.0000000000000D+00
   397  3.9600000000000D+00  0.0000000000000D+00  0.0000000000000D+00
   398  3.9700000000000D+00  0.0000000000000D+00  0.0000000000000D+00
   399  3.9800000000000D+00  0.0000000000000D+00  0.0000000000000D+00
   400  3.9900000000000D+00  0.0000000000000D+00  0.0000000000000D+00
   401  4.0000000000000D+00  0.0000000000000D+00  0.0000000000000D+00
   402  4.0100000000000D+00  0.0000000000000D+00  0.0000000000000D+00
   403  4.0200000000000D+00  0.0000000000000D+00  0.0000000000000D+00
   404  4.0300000000000D+00  0.0000000000000D+00  0.0000000000000D+00
   405  4.0400000000000D+00  0.0000000000000D+00  0.0000000000000D+00
   406  4.0500000000000D+00  0.0000000000000D+00  0.0000000000000D+00
   407  4.0600000000000D+00  0.0000000000000D+00  0.0000000000000D+00
   408  4.0700000000000D+00  0.0000000000000D+00  0.0000000000000D+00
   409  4.0800000000000D+00  0.0000000000000D+00  0.0000000000000D+00
   410  4.0900000000000D+00  0.0000000000000D+00  0.0000000000000D+00
   411  4.1000000000000D+00  0.0000000000000D+00  0.0000000000000D+00
   412  4.1100000000000D+00  0.0000000000000D+00  0.0000000000000D+00
   413  4.1200000000000D+00  0.0000000000000D+00  0.0000000000000D+00
   414  4.1300000000000D+00  0.0000000000000D+00  0.0000000000000D+00
   415  4.1400000000000D+00  0.0000000000000D+00  0.0000000000000D+00
   416  4.1500000000000D+00  0.0000000000000D+00  0.0000000000000D+00
   417  4.1600000000000D+00  0.0000000000000D+00  0.0000000000000D+00
   418  4.1700000000000D+00  0.0000000000000D+00  0.0000000000000D+00
   419  4.1800000000000D+00  0.0000000000000D+00  0.0000000000000D+00
   420  4.1900000000000D+00  0.0000000000000D+00  0.0000000000000D+00
   421  4.2000000000000D+00  0.0000000000000D+00  0.0000000000000D+00
   422  4.2100000000000D+00  0.0000000000000D+00  0.0000000000000D+00