Ru    ONCVPSP-3.3.0  r_core=   1.35650   1.40592   1.30881
     44.0000     16.0000      220408    zatom,zion,pspd
     8       2   2     4   600     0    pspcod,pspxc,lmax,lloc,mmax,r2well
  5.99000000  0.00000000  0.00000000    rchrg fchrg qchrg
     2     2     2     0     0    nproj
     1     1           extension_switch
   0                         1.4571498448660D+01  1.1455028198244D+00
     1  0.0000000000000D+00 -8.5199647337220D-10  4.3626190437962D-09
     2  1.0000000000000D-02  7.2167238681438D-02 -4.1039629118431D-02
     3  2.0000000000000D-02  1.4416589455289D-01 -8.1746768105342D-02
     4  3.0000000000000D-02  2.1582831840550D-01 -1.2179296301802D-01
     5  4.0000000000000D-02  2.8698871539649D-01 -1.6085776565888D-01
     6  5.0000000000000D-02  3.5748404036418D-01 -1.9863257100378D-01
     7  6.0000000000000D-02  4.2715485552001D-01 -2.3482425926207D-01
     8  7.0000000000000D-02  4.9584613899633D-01 -2.6915858266440D-01
     9  8.0000000000000D-02  5.6340803358102D-01 -3.0138324143703D-01
    10  9.0000000000000D-02  6.2969652600723D-01 -3.3127059873791D-01
    11  1.0000000000000D-01  6.9457404837235D-01 -3.5861999051318D-01
    12  1.1000000000000D-01  7.5790999461363D-01 -3.8325959318000D-01
    13  1.2000000000000D-01  8.1958114644541D-01 -4.0504781963816D-01
    14  1.3000000000000D-01  8.7947200474018D-01 -4.2387422223204D-01
    15  1.4000000000000D-01  9.3747502398478D-01 -4.3965988979185D-01
    16  1.5000000000000D-01  9.9349074913650D-01 -4.5235733463520D-01
    17  1.6000000000000D-01  1.0474278559116D+00 -4.6194987426206D-01
    18  1.7000000000000D-01  1.0992030972314D+00 -4.6845052127698D-01
    19  1.8000000000000D-01  1.1487411602008D+00 -4.7190040367459D-01
    20  1.9000000000000D-01  1.1959744395660D+00 -4.7236674588142D-01
    21  2.0000000000000D-01  1.2408427350744D+00 -4.6994044871595D-01
    22  2.1000000000000D-01  1.2832928815039D+00 -4.6473331357745D-01
    23  2.2000000000000D-01  1.3232783213191D+00 -4.5687496257592D-01
    24  2.3000000000000D-01  1.3607586309345D+00 -4.4650951185772D-01
    25  2.4000000000000D-01  1.3956990123848D+00 -4.3379205996463D-01
    26  2.5000000000000D-01  1.4280697628185D+00 -4.1888505660272D-01
    27  2.6000000000000D-01  1.4578457346223D+00 -4.0195461962401D-01
    28  2.7000000000000D-01  1.4850057991414D+00 -3.8316686928842D-01
    29  2.8000000000000D-01  1.5095323268858D+00 -3.6268434894409D-01
    30  2.9000000000000D-01  1.5314106967907D+00 -3.4066260013037D-01
    31  3.0000000000000D-01  1.5506288465538D+00 -3.1724695777611D-01
    32  3.1000000000000D-01  1.5671768752837D+00 -2.9256962766696D-01
    33  3.2000000000000D-01  1.5810467086989D+00 -2.6674710373480D-01
    34  3.3000000000000D-01  1.5922318359129D+00 -2.3987797704983D-01
    35  3.4000000000000D-01  1.6007271254496D+00 -2.1204118175455D-01
    36  3.5000000000000D-01  1.6065287265864D+00 -1.8329471567286D-01
    37  3.6000000000000D-01  1.6096340604286D+00 -1.5367486507483D-01
    38  3.7000000000000D-01  1.6100419033169D+00 -1.2319595420908D-01
    39  3.8000000000000D-01  1.6077525632911D+00 -9.1850630875706D-02
    40  3.9000000000000D-01  1.6027681483958D+00 -5.9610689655488D-02
    41  4.0000000000000D-01  1.5950929236694D+00 -2.6428424596303D-02
    42  4.1000000000000D-01  1.5847337517234D+00  7.7615066488676D-03
    43  4.2000000000000D-01  1.5717006099400D+00  4.3039734869428D-02
    44  4.3000000000000D-01  1.5560071755212D+00  7.9499384457821D-02
    45  4.4000000000000D-01  1.5376714679455D+00  1.1724287739581D-01
    46  4.5000000000000D-01  1.5167165368599D+00  1.5637838990459D-01
    47  4.6000000000000D-01  1.4931711820871D+00  1.9701602291158D-01
    48  4.7000000000000D-01  1.4670706912861D+00  2.3926375385792D-01
    49  4.8000000000000D-01  1.4384575798890D+00  2.8322324267340D-01
    50  4.9000000000000D-01  1.4073823172766D+00  3.2898556887511D-01
    51  5.0000000000000D-01  1.3739040227606D+00  3.7662697961297D-01
    52  5.1000000000000D-01  1.3380911148207D+00  4.2620473002230D-01
    53  5.2000000000000D-01  1.3000218972210D+00  4.7775309740438D-01
    54  5.3000000000000D-01  1.2597850660906D+00  5.3127964951069D-01
    55  5.4000000000000D-01  1.2174801228040D+00  5.8676184456545D-01
    56  5.5000000000000D-01  1.1732176785340D+00  6.4414403662729D-01
    57  5.6000000000000D-01  1.1271196376552D+00  7.0333495453052D-01
    58  5.7000000000000D-01  1.0793192487377D+00  7.6420571601489D-01
    59  5.8000000000000D-01  1.0299610136692D+00  8.2658843083478D-01
    60  5.9000000000000D-01  9.7920044744986D-01  8.9027543777625D-01
    61  6.0000000000000D-01  9.2720368339441D-01  9.5501921068350D-01
    62  6.1000000000000D-01  8.7414692081219D-01  1.0205329580119D+00
    63  6.2000000000000D-01  8.2021571468589D-01  1.0864919292102D+00
    64  6.3000000000000D-01  7.6560410940200D-01  1.1525354295419D+00
    65  6.4000000000000D-01  7.1051362113476D-01  1.2182695330985D+00
    66  6.5000000000000D-01  6.5515207605373D-01  1.2832704717112D+00
    67  6.6000000000000D-01  5.9973231402523D-01  1.3470886656586D+00
    68  6.7000000000000D-01  5.4447076988845D-01  1.4092533505851D+00
    69  6.8000000000000D-01  4.8958594668213D-01  1.4692777440240D+00
    70  6.9000000000000D-01  4.3529679730203D-01  1.5266646847101D+00
    71  7.0000000000000D-01  3.8182103297235D-01  1.5809126685283D+00
    72  7.1000000000000D-01  3.2937337857228D-01  1.6315221966854D+00
    73  7.2000000000000D-01  2.7816379624085D-01  1.6780023446594D+00
    74  7.3000000000000D-01  2.2839569975621D-01  1.7198774548461D+00
    75  7.4000000000000D-01  1.8026418293514D-01  1.7566938516470D+00
    76  7.5000000000000D-01  1.3395428569933D-01  1.7880264751655D+00
    77  7.6000000000000D-01  8.9639321499223D-02  1.8134853287329D+00
    78  7.7000000000000D-01  4.7479289460796D-02  1.8327216362466D+00
    79  7.8000000000000D-01  7.6193939292613D-03  1.8454336077617D+00
    80  7.9000000000000D-01 -2.9811306971667D-02  1.8513717159254D+00
    81  8.0000000000000D-01 -6.4701103554963D-02  1.8503433916485D+00
    82  8.1000000000000D-01 -9.6956669094939D-02  1.8422170547859D+00
    83  8.2000000000000D-01 -1.2650391025618D-01  1.8269254044671D+00
    84  8.3000000000000D-01 -1.5328861936782D-01  1.8044679039401D+00
    85  8.4000000000000D-01 -1.7727691708494D-01  1.7749124062338D+00
    86  8.5000000000000D-01 -1.9845547679621D-01  1.7383958794250D+00
    87  8.6000000000000D-01 -2.1683152512962D-01  1.6951242036376D+00
    88  8.7000000000000D-01 -2.3243261603126D-01  1.6453710258857D+00
    89  8.8000000000000D-01 -2.4530617909793D-01  1.5894756732918D+00
    90  8.9000000000000D-01 -2.5551884608370D-01  1.5278401398305D+00
    91  9.0000000000000D-01 -2.6315556272124D-01  1.4609251763259D+00
    92  9.1000000000000D-01 -2.6831849615092D-01  1.3892455277435D+00
    93  9.2000000000000D-01 -2.7112575128276D-01  1.3133643756136D+00
    94  9.3000000000000D-01 -2.7170991227811D-01  1.2338870564757D+00
    95  9.4000000000000D-01 -2.7021642798327D-01  1.1514541393248D+00
    96  9.5000000000000D-01 -2.6680186253033D-01  1.0667339559567D+00
    97  9.6000000000000D-01 -2.6163203440098D-01  9.8041468765430D-01
    98  9.7000000000000D-01 -2.5488006899029D-01  8.9319611966915D-01
    99  9.8000000000000D-01 -2.4672439108190D-01  8.0578118128995D-01
   100  9.9000000000000D-01 -2.3734668460383D-01  7.1886739372173D-01
   101  1.0000000000000D+00 -2.2692984762169D-01  6.3313835074214D-01
   102  1.0100000000000D+00 -2.1565597063098D-01  5.4925535762154D-01
   103  1.0200000000000D+00 -2.0370436591339D-01  4.6784935247108D-01
   104  1.0300000000000D+00 -1.9124967498757D-01  3.8951323084241D-01
   105  1.0400000000000D+00 -1.7846007998594D-01  3.1479468892090D-01
   106  1.0500000000000D+00 -1.6549564323740D-01  2.4418969354198D-01
   107  1.0600000000000D+00 -1.5250679741104D-01  1.7813667842214D-01
   108  1.0700000000000D+00 -1.3963300612575D-01  1.1701155473286D-01
   109  1.0800000000000D+00 -1.2700161238966D-01  6.1123612450462D-02
   110  1.0900000000000D+00 -1.1472688913717D-01  1.0712374656996D-02
   111  1.1000000000000D+00 -1.0290930311044D-01 -3.4054546953432D-02
   112  1.1100000000000D+00 -9.1634999924904D-02 -7.3082562815981D-02
   113  1.1200000000000D+00 -8.0975514431602D-02 -1.0635016712527D-01
   114  1.1300000000000D+00 -7.0987707055530D-02 -1.3390795083675D-01
   115  1.1400000000000D+00 -6.1713922982140D-02 -1.5587658408365D-01
   116  1.1500000000000D+00 -5.3182367953443D-02 -1.7244380040865D-01
   117  1.1600000000000D+00 -4.5407690071903D-02 -1.8386043533865D-01
   118  1.1700000000000D+00 -3.8391754150939D-02 -1.9043558501715D-01
   119  1.1800000000000D+00 -3.2124592004879D-02 -1.9253096510994D-01
   120  1.1900000000000D+00 -2.6585509083701D-02 -1.9055456396967D-01
   121  1.2000000000000D+00 -2.1744324849005D-02 -1.8495369788882D-01
   122  1.2100000000000D+00 -1.7562722285400D-02 -1.7620758544557D-01
   123  1.2200000000000D+00 -1.3995680494308D-02 -1.6481956460660D-01
   124  1.2300000000000D+00 -1.0992961716079D-02 -1.5130908812802D-01
   125  1.2400000000000D+00 -8.5006239832294D-03 -1.3620363334961D-01
   126  1.2500000000000D+00 -6.4625297989916D-03 -1.2003066613858D-01
   127  1.2600000000000D+00 -4.8218206060966D-03 -1.0330980147193D-01
   128  1.2700000000000D+00 -3.5223252232060D-03 -8.6545312250816D-02
   129  1.2800000000000D+00 -2.5098851365700D-03 -7.0219058396048D-02
   130  1.2900000000000D+00 -1.7335505520595D-03 -5.4784069564037D-02
   131  1.3000000000000D+00 -1.1467261909380D-03 -4.0658334812877D-02
   132  1.3100000000000D+00 -7.0759405452944D-04 -2.8224185502881D-02
   133  1.3200000000000D+00 -3.8103347542913D-04 -1.7815857023301D-02
   134  1.3300000000000D+00 -1.4193105014944D-04 -9.6436368251655D-03
   135  1.3400000000000D+00  2.6299352835669D-05 -4.0517912068630D-03
   136  1.3500000000000D+00  1.3007230261168D-04 -1.2422822361102D-03
   137  1.3600000000000D+00  1.1983897483050D-04 -2.4565286244937D-04
   138  1.3700000000000D+00  2.3554924745471D-05 -9.8745885139313D-06
   139  1.3800000000000D+00 -1.6807065828611D-05 -2.4813283906662D-06
   140  1.3900000000000D+00  6.5601004960318D-07 -4.2150042691073D-07
   141  1.4000000000000D+00  3.1379749850285D-06 -1.3088381679873D-06
   142  1.4100000000000D+00 -2.9952710339128D-07  1.0100066243035D-06
   143  1.4200000000000D+00 -1.8799118891966D-07  6.3390706206484D-07
   144  1.4300000000000D+00  0.0000000000000D+00  0.0000000000000D+00
   145  1.4400000000000D+00  0.0000000000000D+00  0.0000000000000D+00
   146  1.4500000000000D+00  0.0000000000000D+00  0.0000000000000D+00
   147  1.4600000000000D+00  0.0000000000000D+00  0.0000000000000D+00
   148  1.4700000000000D+00  0.0000000000000D+00  0.0000000000000D+00
   149  1.4800000000000D+00  0.0000000000000D+00  0.0000000000000D+00
   150  1.4900000000000D+00  0.0000000000000D+00  0.0000000000000D+00
   151  1.5000000000000D+00  0.0000000000000D+00  0.0000000000000D+00
   152  1.5100000000000D+00  0.0000000000000D+00  0.0000000000000D+00
   153  1.5200000000000D+00  0.0000000000000D+00  0.0000000000000D+00
   154  1.5300000000000D+00  0.0000000000000D+00  0.0000000000000D+00
   155  1.5400000000000D+00  0.0000000000000D+00  0.0000000000000D+00
   156  1.5500000000000D+00  0.0000000000000D+00  0.0000000000000D+00
   157  1.5600000000000D+00  0.0000000000000D+00  0.0000000000000D+00
   158  1.5700000000000D+00  0.0000000000000D+00  0.0000000000000D+00
   159  1.5800000000000D+00  0.0000000000000D+00  0.0000000000000D+00
   160  1.5900000000000D+00  0.0000000000000D+00  0.0000000000000D+00
   161  1.6000000000000D+00  0.0000000000000D+00  0.0000000000000D+00
   162  1.6100000000000D+00  0.0000000000000D+00  0.0000000000000D+00
   163  1.6200000000000D+00  0.0000000000000D+00  0.0000000000000D+00
   164  1.6300000000000D+00  0.0000000000000D+00  0.0000000000000D+00
   165  1.6400000000000D+00  0.0000000000000D+00  0.0000000000000D+00
   166  1.6500000000000D+00  0.0000000000000D+00  0.0000000000000D+00
   167  1.6600000000000D+00  0.0000000000000D+00  0.0000000000000D+00
   168  1.6700000000000D+00  0.0000000000000D+00  0.0000000000000D+00
   169  1.6800000000000D+00  0.0000000000000D+00  0.0000000000000D+00
   170  1.6900000000000D+00  0.0000000000000D+00  0.0000000000000D+00
   171  1.7000000000000D+00  0.0000000000000D+00  0.0000000000000D+00
   172  1.7100000000000D+00  0.0000000000000D+00  0.0000000000000D+00
   173  1.7200000000000D+00  0.0000000000000D+00  0.0000000000000D+00
   174  1.7300000000000D+00  0.0000000000000D+00  0.0000000000000D+00
   175  1.7400000000000D+00  0.0000000000000D+00  0.0000000000000D+00
   176  1.7500000000000D+00  0.0000000000000D+00  0.0000000000000D+00
   177  1.7600000000000D+00  0.0000000000000D+00  0.0000000000000D+00
   178  1.7700000000000D+00  0.0000000000000D+00  0.0000000000000D+00
   179  1.7800000000000D+00  0.0000000000000D+00  0.0000000000000D+00
   180  1.7900000000000D+00  0.0000000000000D+00  0.0000000000000D+00
   181  1.8000000000000D+00  0.0000000000000D+00  0.0000000000000D+00
   182  1.8100000000000D+00  0.0000000000000D+00  0.0000000000000D+00
   183  1.8200000000000D+00  0.0000000000000D+00  0.0000000000000D+00
   184  1.8300000000000D+00  0.0000000000000D+00  0.0000000000000D+00
   185  1.8400000000000D+00  0.0000000000000D+00  0.0000000000000D+00
   186  1.8500000000000D+00  0.0000000000000D+00  0.0000000000000D+00
   187  1.8600000000000D+00  0.0000000000000D+00  0.0000000000000D+00
   188  1.8700000000000D+00  0.0000000000000D+00  0.0000000000000D+00
   189  1.8800000000000D+00  0.0000000000000D+00  0.0000000000000D+00
   190  1.8900000000000D+00  0.0000000000000D+00  0.0000000000000D+00
   191  1.9000000000000D+00  0.0000000000000D+00  0.0000000000000D+00
   192  1.9100000000000D+00  0.0000000000000D+00  0.0000000000000D+00
   193  1.9200000000000D+00  0.0000000000000D+00  0.0000000000000D+00
   194  1.9300000000000D+00  0.0000000000000D+00  0.0000000000000D+00
   195  1.9400000000000D+00  0.0000000000000D+00  0.0000000000000D+00
   196  1.9500000000000D+00  0.0000000000000D+00  0.0000000000000D+00
   197  1.9600000000000D+00  0.0000000000000D+00  0.0000000000000D+00
   198  1.9700000000000D+00  0.0000000000000D+00  0.0000000000000D+00
   199  1.9800000000000D+00  0.0000000000000D+00  0.0000000000000D+00
   200  1.9900000000000D+00  0.0000000000000D+00  0.0000000000000D+00
   201  2.0000000000000D+00  0.0000000000000D+00  0.0000000000000D+00
   202  2.0100000000000D+00  0.0000000000000D+00  0.0000000000000D+00
   203  2.0200000000000D+00  0.0000000000000D+00  0.0000000000000D+00
   204  2.0300000000000D+00  0.0000000000000D+00  0.0000000000000D+00
   205  2.0400000000000D+00  0.0000000000000D+00  0.0000000000000D+00
   206  2.0500000000000D+00  0.0000000000000D+00  0.0000000000000D+00
   207  2.0600000000000D+00  0.0000000000000D+00  0.0000000000000D+00
   208  2.0700000000000D+00  0.0000000000000D+00  0.0000000000000D+00
   209  2.0800000000000D+00  0.0000000000000D+00  0.0000000000000D+00
   210  2.0900000000000D+00  0.0000000000000D+00  0.0000000000000D+00
   211  2.1000000000000D+00  0.0000000000000D+00  0.0000000000000D+00
   212  2.1100000000000D+00  0.0000000000000D+00  0.0000000000000D+00
   213  2.1200000000000D+00  0.0000000000000D+00  0.0000000000000D+00
   214  2.1300000000000D+00  0.0000000000000D+00  0.0000000000000D+00
   215  2.1400000000000D+00  0.0000000000000D+00  0.0000000000000D+00
   216  2.1500000000000D+00  0.0000000000000D+00  0.0000000000000D+00
   217  2.1600000000000D+00  0.0000000000000D+00  0.0000000000000D+00
   218  2.1700000000000D+00  0.0000000000000D+00  0.0000000000000D+00
   219  2.1800000000000D+00  0.0000000000000D+00  0.0000000000000D+00
   220  2.1900000000000D+00  0.0000000000000D+00  0.0000000000000D+00
   221  2.2000000000000D+00  0.0000000000000D+00  0.0000000000000D+00
   222  2.2100000000000D+00  0.0000000000000D+00  0.0000000000000D+00
   223  2.2200000000000D+00  0.0000000000000D+00  0.0000000000000D+00
   224  2.2300000000000D+00  0.0000000000000D+00  0.0000000000000D+00
   225  2.2400000000000D+00  0.0000000000000D+00  0.0000000000000D+00
   226  2.2500000000000D+00  0.0000000000000D+00  0.0000000000000D+00
   227  2.2600000000000D+00  0.0000000000000D+00  0.0000000000000D+00
   228  2.2700000000000D+00  0.0000000000000D+00  0.0000000000000D+00
   229  2.2800000000000D+00  0.0000000000000D+00  0.0000000000000D+00
   230  2.2900000000000D+00  0.0000000000000D+00  0.0000000000000D+00
   231  2.3000000000000D+00  0.0000000000000D+00  0.0000000000000D+00
   232  2.3100000000000D+00  0.0000000000000D+00  0.0000000000000D+00
   233  2.3200000000000D+00  0.0000000000000D+00  0.0000000000000D+00
   234  2.3300000000000D+00  0.0000000000000D+00  0.0000000000000D+00
   235  2.3400000000000D+00  0.0000000000000D+00  0.0000000000000D+00
   236  2.3500000000000D+00  0.0000000000000D+00  0.0000000000000D+00
   237  2.3600000000000D+00  0.0000000000000D+00  0.0000000000000D+00
   238  2.3700000000000D+00  0.0000000000000D+00  0.0000000000000D+00
   239  2.3800000000000D+00  0.0000000000000D+00  0.0000000000000D+00
   240  2.3900000000000D+00  0.0000000000000D+00  0.0000000000000D+00
   241  2.4000000000000D+00  0.0000000000000D+00  0.0000000000000D+00
   242  2.4100000000000D+00  0.0000000000000D+00  0.0000000000000D+00
   243  2.4200000000000D+00  0.0000000000000D+00  0.0000000000000D+00
   244  2.4300000000000D+00  0.0000000000000D+00  0.0000000000000D+00
   245  2.4400000000000D+00  0.0000000000000D+00  0.0000000000000D+00
   246  2.4500000000000D+00  0.0000000000000D+00  0.0000000000000D+00
   247  2.4600000000000D+00  0.0000000000000D+00  0.0000000000000D+00
   248  2.4700000000000D+00  0.0000000000000D+00  0.0000000000000D+00
   249  2.4800000000000D+00  0.0000000000000D+00  0.0000000000000D+00
   250  2.4900000000000D+00  0.0000000000000D+00  0.0000000000000D+00
   251  2.5000000000000D+00  0.0000000000000D+00  0.0000000000000D+00
   252  2.5100000000000D+00  0.0000000000000D+00  0.0000000000000D+00
   253  2.5200000000000D+00  0.0000000000000D+00  0.0000000000000D+00
   254  2.5300000000000D+00  0.0000000000000D+00  0.0000000000000D+00
   255  2.5400000000000D+00  0.0000000000000D+00  0.0000000000000D+00
   256  2.5500000000000D+00  0.0000000000000D+00  0.0000000000000D+00
   257  2.5600000000000D+00  0.0000000000000D+00  0.0000000000000D+00
   258  2.5700000000000D+00  0.0000000000000D+00  0.0000000000000D+00
   259  2.5800000000000D+00  0.0000000000000D+00  0.0000000000000D+00
   260  2.5900000000000D+00  0.0000000000000D+00  0.0000000000000D+00
   261  2.6000000000000D+00  0.0000000000000D+00  0.0000000000000D+00
   262  2.6100000000000D+00  0.0000000000000D+00  0.0000000000000D+00
   263  2.6200000000000D+00  0.0000000000000D+00  0.0000000000000D+00
   264  2.6300000000000D+00  0.0000000000000D+00  0.0000000000000D+00
   265  2.6400000000000D+00  0.0000000000000D+00  0.0000000000000D+00
   266  2.6500000000000D+00  0.0000000000000D+00  0.0000000000000D+00
   267  2.6600000000000D+00  0.0000000000000D+00  0.0000000000000D+00
   268  2.6700000000000D+00  0.0000000000000D+00  0.0000000000000D+00
   269  2.6800000000000D+00  0.0000000000000D+00  0.0000000000000D+00
   270  2.6900000000000D+00  0.0000000000000D+00  0.0000000000000D+00
   271  2.7000000000000D+00  0.0000000000000D+00  0.0000000000000D+00
   272  2.7100000000000D+00  0.0000000000000D+00  0.0000000000000D+00
   273  2.7200000000000D+00  0.0000000000000D+00  0.0000000000000D+00
   274  2.7300000000000D+00  0.0000000000000D+00  0.0000000000000D+00
   275  2.7400000000000D+00  0.0000000000000D+00  0.0000000000000D+00
   276  2.7500000000000D+00  0.0000000000000D+00  0.0000000000000D+00
   277  2.7600000000000D+00  0.0000000000000D+00  0.0000000000000D+00
   278  2.7700000000000D+00  0.0000000000000D+00  0.0000000000000D+00
   279  2.7800000000000D+00  0.0000000000000D+00  0.0000000000000D+00
   280  2.7900000000000D+00  0.0000000000000D+00  0.0000000000000D+00
   281  2.8000000000000D+00  0.0000000000000D+00  0.0000000000000D+00
   282  2.8100000000000D+00  0.0000000000000D+00  0.0000000000000D+00
   283  2.8200000000000D+00  0.0000000000000D+00  0.0000000000000D+00
   284  2.8300000000000D+00  0.0000000000000D+00  0.0000000000000D+00
   285  2.8400000000000D+00  0.0000000000000D+00  0.0000000000000D+00
   286  2.8500000000000D+00  0.0000000000000D+00  0.0000000000000D+00
   287  2.8600000000000D+00  0.0000000000000D+00  0.0000000000000D+00
   288  2.8700000000000D+00  0.0000000000000D+00  0.0000000000000D+00
   289  2.8800000000000D+00  0.0000000000000D+00  0.0000000000000D+00
   290  2.8900000000000D+00  0.0000000000000D+00  0.0000000000000D+00
   291  2.9000000000000D+00  0.0000000000000D+00  0.0000000000000D+00
   292  2.9100000000000D+00  0.0000000000000D+00  0.0000000000000D+00
   293  2.9200000000000D+00  0.0000000000000D+00  0.0000000000000D+00
   294  2.9300000000000D+00  0.0000000000000D+00  0.0000000000000D+00
   295  2.9400000000000D+00  0.0000000000000D+00  0.0000000000000D+00
   296  2.9500000000000D+00  0.0000000000000D+00  0.0000000000000D+00
   297  2.9600000000000D+00  0.0000000000000D+00  0.0000000000000D+00
   298  2.9700000000000D+00  0.0000000000000D+00  0.0000000000000D+00
   299  2.9800000000000D+00  0.0000000000000D+00  0.0000000000000D+00
   300  2.9900000000000D+00  0.0000000000000D+00  0.0000000000000D+00
   301  3.0000000000000D+00  0.0000000000000D+00  0.0000000000000D+00
   302  3.0100000000000D+00  0.0000000000000D+00  0.0000000000000D+00
   303  3.0200000000000D+00  0.0000000000000D+00  0.0000000000000D+00
   304  3.0300000000000D+00  0.0000000000000D+00  0.0000000000000D+00
   305  3.0400000000000D+00  0.0000000000000D+00  0.0000000000000D+00
   306  3.0500000000000D+00  0.0000000000000D+00  0.0000000000000D+00
   307  3.0600000000000D+00  0.0000000000000D+00  0.0000000000000D+00
   308  3.0700000000000D+00  0.0000000000000D+00  0.0000000000000D+00
   309  3.0800000000000D+00  0.0000000000000D+00  0.0000000000000D+00
   310  3.0900000000000D+00  0.0000000000000D+00  0.0000000000000D+00
   311  3.1000000000000D+00  0.0000000000000D+00  0.0000000000000D+00
   312  3.1100000000000D+00  0.0000000000000D+00  0.0000000000000D+00
   313  3.1200000000000D+00  0.0000000000000D+00  0.0000000000000D+00
   314  3.1300000000000D+00  0.0000000000000D+00  0.0000000000000D+00
   315  3.1400000000000D+00  0.0000000000000D+00  0.0000000000000D+00
   316  3.1500000000000D+00  0.0000000000000D+00  0.0000000000000D+00
   317  3.1600000000000D+00  0.0000000000000D+00  0.0000000000000D+00
   318  3.1700000000000D+00  0.0000000000000D+00  0.0000000000000D+00
   319  3.1800000000000D+00  0.0000000000000D+00  0.0000000000000D+00
   320  3.1900000000000D+00  0.0000000000000D+00  0.0000000000000D+00
   321  3.2000000000000D+00  0.0000000000000D+00  0.0000000000000D+00
   322  3.2100000000000D+00  0.0000000000000D+00  0.0000000000000D+00
   323  3.2200000000000D+00  0.0000000000000D+00  0.0000000000000D+00
   324  3.2300000000000D+00  0.0000000000000D+00  0.0000000000000D+00
   325  3.2400000000000D+00  0.0000000000000D+00  0.0000000000000D+00
   326  3.2500000000000D+00  0.0000000000000D+00  0.0000000000000D+00
   327  3.2600000000000D+00  0.0000000000000D+00  0.0000000000000D+00
   328  3.2700000000000D+00  0.0000000000000D+00  0.0000000000000D+00
   329  3.2800000000000D+00  0.0000000000000D+00  0.0000000000000D+00
   330  3.2900000000000D+00  0.0000000000000D+00  0.0000000000000D+00
   331  3.3000000000000D+00  0.0000000000000D+00  0.0000000000000D+00
   332  3.3100000000000D+00  0.0000000000000D+00  0.0000000000000D+00
   333  3.3200000000000D+00  0.0000000000000D+00  0.0000000000000D+00
   334  3.3300000000000D+00  0.0000000000000D+00  0.0000000000000D+00
   335  3.3400000000000D+00  0.0000000000000D+00  0.0000000000000D+00
   336  3.3500000000000D+00  0.0000000000000D+00  0.0000000000000D+00
   337  3.3600000000000D+00  0.0000000000000D+00  0.0000000000000D+00
   338  3.3700000000000D+00  0.0000000000000D+00  0.0000000000000D+00
   339  3.3800000000000D+00  0.0000000000000D+00  0.0000000000000D+00
   340  3.3900000000000D+00  0.0000000000000D+00  0.0000000000000D+00
   341  3.4000000000000D+00  0.0000000000000D+00  0.0000000000000D+00
   342  3.4100000000000D+00  0.0000000000000D+00  0.0000000000000D+00
   343  3.4200000000000D+00  0.0000000000000D+00  0.0000000000000D+00
   344  3.4300000000000D+00  0.0000000000000D+00  0.0000000000000D+00
   345  3.4400000000000D+00  0.0000000000000D+00  0.0000000000000D+00
   346  3.4500000000000D+00  0.0000000000000D+00  0.0000000000000D+00
   347  3.4600000000000D+00  0.0000000000000D+00  0.0000000000000D+00
   348  3.4700000000000D+00  0.0000000000000D+00  0.0000000000000D+00
   349  3.4800000000000D+00  0.0000000000000D+00  0.0000000000000D+00
   350  3.4900000000000D+00  0.0000000000000D+00  0.0000000000000D+00
   351  3.5000000000000D+00  0.0000000000000D+00  0.0000000000000D+00
   352  3.5100000000000D+00  0.0000000000000D+00  0.0000000000000D+00
   353  3.5200000000000D+00  0.0000000000000D+00  0.0000000000000D+00
   354  3.5300000000000D+00  0.0000000000000D+00  0.0000000000000D+00
   355  3.5400000000000D+00  0.0000000000000D+00  0.0000000000000D+00
   356  3.5500000000000D+00  0.0000000000000D+00  0.0000000000000D+00
   357  3.5600000000000D+00  0.0000000000000D+00  0.0000000000000D+00
   358  3.5700000000000D+00  0.0000000000000D+00  0.0000000000000D+00
   359  3.5800000000000D+00  0.0000000000000D+00  0.0000000000000D+00
   360  3.5900000000000D+00  0.0000000000000D+00  0.0000000000000D+00
   361  3.6000000000000D+00  0.0000000000000D+00  0.0000000000000D+00
   362  3.6100000000000D+00  0.0000000000000D+00  0.0000000000000D+00
   363  3.6200000000000D+00  0.0000000000000D+00  0.0000000000000D+00
   364  3.6300000000000D+00  0.0000000000000D+00  0.0000000000000D+00
   365  3.6400000000000D+00  0.0000000000000D+00  0.0000000000000D+00
   366  3.6500000000000D+00  0.0000000000000D+00  0.0000000000000D+00
   367  3.6600000000000D+00  0.0000000000000D+00  0.0000000000000D+00
   368  3.6700000000000D+00  0.0000000000000D+00  0.0000000000000D+00
   369  3.6800000000000D+00  0.0000000000000D+00  0.0000000000000D+00
   370  3.6900000000000D+00  0.0000000000000D+00  0.0000000000000D+00
   371  3.7000000000000D+00  0.0000000000000D+00  0.0000000000000D+00
   372  3.7100000000000D+00  0.0000000000000D+00  0.0000000000000D+00
   373  3.7200000000000D+00  0.0000000000000D+00  0.0000000000000D+00
   374  3.7300000000000D+00  0.0000000000000D+00  0.0000000000000D+00
   375  3.7400000000000D+00  0.0000000000000D+00  0.0000000000000D+00
   376  3.7500000000000D+00  0.0000000000000D+00  0.0000000000000D+00
   377  3.7600000000000D+00  0.0000000000000D+00  0.0000000000000D+00
   378  3.7700000000000D+00  0.0000000000000D+00  0.0000000000000D+00
   379  3.7800000000000D+00  0.0000000000000D+00  0.0000000000000D+00
   380  3.7900000000000D+00  0.0000000000000D+00  0.0000000000000D+00
   381  3.8000000000000D+00  0.0000000000000D+00  0.0000000000000D+00
   382  3.8100000000000D+00  0.0000000000000D+00  0.0000000000000D+00
   383  3.8200000000000D+00  0.0000000000000D+00  0.0000000000000D+00
   384  3.8300000000000D+00  0.0000000000000D+00  0.0000000000000D+00
   385  3.8400000000000D+00  0.0000000000000D+00  0.0000000000000D+00
   386  3.8500000000000D+00  0.0000000000000D+00  0.0000000000000D+00
   387  3.8600000000000D+00  0.0000000000000D+00  0.0000000000000D+00
   388  3.8700000000000D+00  0.0000000000000D+00  0.0000000000000D+00
   389  3.8800000000000D+00  0.0000000000000D+00  0.0000000000000D+00
   390  3.8900000000000D+00  0.0000000000000D+00  0.0000000000000D+00
   391  3.9000000000000D+00  0.0000000000000D+00  0.0000000000000D+00
   392  3.9100000000000D+00  0.0000000000000D+00  0.0000000000000D+00
   393  3.9200000000000D+00  0.0000000000000D+00  0.0000000000000D+00
   394  3.9300000000000D+00  0.0000000000000D+00  0.0000000000000D+00
   395  3.9400000000000D+00  0.0000000000000D+00  0.0000000000000D+00
   396  3.9500000000000D+00  0.0000000000000D+00  0.0000000000000D+00
   397  3.9600000000000D+00  0.0000000000000D+00  0.0000000000000D+00
   398  3.9700000000000D+00  0.0000000000000D+00  0.0000000000000D+00
   399  3.9800000000000D+00  0.0000000000000D+00  0.0000000000000D+00
   400  3.9900000000000D+00  0.0000000000000D+00  0.0000000000000D+00
   401  4.0000000000000D+00  0.0000000000000D+00  0.0000000000000D+00
   402  4.0100000000000D+00  0.0000000000000D+00  0.0000000000000D+00
   403  4.0200000000000D+00  0.0000000000000D+00  0.0000000000000D+00
   404  4.0300000000000D+00  0.0000000000000D+00  0.0000000000000D+00
   405  4.0400000000000D+00  0.0000000000000D+00  0.0000000000000D+00
   406  4.0500000000000D+00  0.0000000000000D+00  0.0000000000000D+00
   407  4.0600000000000D+00  0.0000000000000D+00  0.0000000000000D+00
   408  4.0700000000000D+00  0.0000000000000D+00  0.0000000000000D+00
   409  4.0800000000000D+00  0.0000000000000D+00  0.0000000000000D+00
   410  4.0900000000000D+00  0.0000000000000D+00  0.0000000000000D+00
   411  4.1000000000000D+00  0.0000000000000D+00  0.0000000000000D+00
   412  4.1100000000000D+00  0.0000000000000D+00  0.0000000000000D+00
   413  4.1200000000000D+00  0.0000000000000D+00  0.0000000000000D+00
   414  4.1300000000000D+00  0.0000000000000D+00  0.0000000000000D+00
   415  4.1400000000000D+00  0.0000000000000D+00  0.0000000000000D+00
   416  4.1500000000000D+00  0.0000000000000D+00  0.0000000000000D+00
   417  4.1600000000000D+00  0.0000000000000D+00  0.0000000000000D+00
   418  4.1700000000000D+00  0.0000000000000D+00  0.0000000000000D+00
   419  4.1800000000000D+00  0.0000000000000D+00  0.0000000000000D+00
   420  4.1900000000000D+00  0.0000000000000D+00  0.0000000000000D+00
   421  4.2000000000000D+00  0.0000000000000D+00  0.0000000000000D+00
   422  4.2100000000000D+00  0.0000000000000D+00  0.0000000000000D+00