N     ONCVPSP-3.3.0  r_core=   1.20551   1.35824
      7.0000      5.0000      220408    zatom,zion,pspd
     8       2   1     4   600     0    pspcod,pspxc,lmax,lloc,mmax,r2well
  5.99000000  0.00000000  0.00000000    rchrg fchrg qchrg
     2     2     0     0     0    nproj
     1     1           extension_switch
   0                         7.4072473490001D+00  6.1756338586962D-01
     1  0.0000000000000D+00 -3.2041265196625D-09  1.7582603484279D-08
     2  1.0000000000000D-02  9.4294978426191D-02 -6.0131469487013D-02
     3  2.0000000000000D-02  1.8824877871278D-01 -1.1955299513783D-01
     4  3.0000000000000D-02  2.8152297809623D-01 -1.7756582886966D-01
     5  4.0000000000000D-02  3.7378462165879D-01 -2.3349339209392D-01
     6  5.0000000000000D-02  4.6470884982921D-01 -2.8669181006636D-01
     7  6.0000000000000D-02  5.5398140052231D-01 -3.3655979864013D-01
     8  7.0000000000000D-02  6.4130094798770D-01 -3.8254770873375D-01
     9  8.0000000000000D-02  7.2638124364189D-01 -4.2416555140866D-01
    10  9.0000000000000D-02  8.0895302803828D-01 -4.6098984773059D-01
    11  1.0000000000000D-01  8.8876568760527D-01 -4.9266917212207D-01
    12  1.1000000000000D-01  9.6558863476300D-01 -5.1892828518703D-01
    13  1.2000000000000D-01  1.0392123954111D+00 -5.3957078143213D-01
    14  1.3000000000000D-01  1.1094493934534D+00 -5.5448020830895D-01
    15  1.4000000000000D-01  1.1761344278734D+00 -5.6361964490565D-01
    16  1.5000000000000D-01  1.2391248437772D+00 -5.6702976075946D-01
    17  1.6000000000000D-01  1.2983004046559D+00 -5.6482540696734D-01
    18  1.7000000000000D-01  1.3535628787711D+00 -5.5719082237497D-01
    19  1.8000000000000D-01  1.4048353579117D+00 -5.4437356648172D-01
    20  1.9000000000000D-01  1.4520613317074D+00 -5.2667731720111D-01
    21  2.0000000000000D-01  1.4952035451066D+00 -5.0445369520338D-01
    22  2.1000000000000D-01  1.5342426704407D+00 -4.7809329673954D-01
    23  2.2000000000000D-01  1.5691758286391D+00 -4.4801613317281D-01
    24  2.3000000000000D-01  1.6000149965439D+00 -4.1466168757731D-01
    25  2.4000000000000D-01  1.6267853388726D+00 -3.7847880643653D-01
    26  2.5000000000000D-01  1.6495235041483D+00 -3.3991564752183D-01
    27  2.6000000000000D-01  1.6682759238433D+00 -2.9940990337350D-01
    28  2.7000000000000D-01  1.6830971530787D+00 -2.5737951347287D-01
    29  2.8000000000000D-01  1.6940482894921D+00 -2.1421406730369D-01
    30  2.9000000000000D-01  1.7011955043843D+00 -1.7026708527290D-01
    31  3.0000000000000D-01  1.7046087170236D+00 -1.2584934520538D-01
    32  3.1000000000000D-01  1.7043604390953D+00 -8.1223399239588D-02
    33  3.2000000000000D-01  1.7005248118272D+00 -3.6599399902247D-02
    34  3.3000000000000D-01  1.6931768533754D+00  7.8676745264635D-03
    35  3.4000000000000D-01  1.6823919287473D+00  5.2079335935183D-02
    36  3.5000000000000D-01  1.6682454489596D+00  9.5993416237767D-02
    37  3.6000000000000D-01  1.6508128004212D+00  1.3962241658536D-01
    38  3.7000000000000D-01  1.6301694997963D+00  1.8303041414406D-01
    39  3.8000000000000D-01  1.6063915639815D+00  2.2632859675860D-01
    40  3.9000000000000D-01  1.5795560794307D+00  2.6966952656746D-01
    41  4.0000000000000D-01  1.5497419500110D+00  3.1324026235858D-01
    42  4.1000000000000D-01  1.5170307979735D+00  3.5725449654054D-01
    43  4.2000000000000D-01  1.4815079885814D+00  4.0194388547895D-01
    44  4.3000000000000D-01  1.4432637455432D+00  4.4754877111755D-01
    45  4.4000000000000D-01  1.4023943217222D+00  4.9430850683512D-01
    46  4.5000000000000D-01  1.3590031877077D+00  5.4245161104119D-01
    47  4.6000000000000D-01  1.3132021997717D+00  5.9218597783916D-01
    48  4.7000000000000D-01  1.2651127085331D+00  6.4368937502333D-01
    49  4.8000000000000D-01  1.2148665703192D+00  6.9710045568417D-01
    50  4.9000000000000D-01  1.1626070247396D+00  7.5251050081462D-01
    51  5.0000000000000D-01  1.1084894043495D+00  8.0995609670588D-01
    52  5.1000000000000D-01  1.0526816454285D+00  8.6941293283220D-01
    53  5.2000000000000D-01  9.9536457278430D-01  9.3079088370922D-01
    54  5.3000000000000D-01  9.3673193602011D-01  9.9393051230351D-01
    55  5.4000000000000D-01  8.7699017980101D-01  1.0586011035029D+00
    56  5.5000000000000D-01  8.1635793621127D-01  1.1245003044553D+00
    57  5.6000000000000D-01  7.5506523318676D-01  1.1912554150189D+00
    58  5.7000000000000D-01  6.9335241913779D-01  1.2584263366454D+00
    59  5.8000000000000D-01  6.3146881008895D-01  1.3255101526632D+00
    60  5.9000000000000D-01  5.6967107185431D-01  1.3919472776855D+00
    61  6.0000000000000D-01  5.0822135578047D-01  1.4571290796519D+00
    62  6.1000000000000D-01  4.4738521232848D-01  1.5204068453483D+00
    63  6.2000000000000D-01  3.8742931206385D-01  1.5811019301014D+00
    64  6.3000000000000D-01  3.2861900842607D-01  1.6385169049876D+00
    65  6.4000000000000D-01  2.7121578077616D-01  1.6919474913744D+00
    66  6.5000000000000D-01  2.1547459965303D-01  1.7406950530088D+00
    67  6.6000000000000D-01  1.6164125877491D-01  1.7840794009395D+00
    68  6.7000000000000D-01  1.0994972006159D-01  1.8214516565224D+00
    69  6.8000000000000D-01  6.0619518784427D-02  1.8522069128404D+00
    70  6.9000000000000D-01  1.3853275834531D-02  1.8757964352995D+00
    71  7.0000000000000D-01 -3.0165636969174D-02  1.8917391479563D+00
    72  7.1000000000000D-01 -7.1275234593049D-02  1.8996321630680D+00
    73  7.2000000000000D-01 -1.0933681850661D-01  1.8991601275857D+00
    74  7.3000000000000D-01 -1.4423660113454D-01  1.8901031811580D+00
    75  7.4000000000000D-01 -1.7588702231829D-01  1.8723433455560D+00
    76  7.5000000000000D-01 -2.0422773031602D-01  1.8458691947333D+00
    77  7.6000000000000D-01 -2.2922620569789D-01  1.8107786872561D+00
    78  7.7000000000000D-01 -2.5087801284566D-01  1.7672800782693D+00
    79  7.8000000000000D-01 -2.6920667046091D-01  1.7156908655098D+00
    80  7.9000000000000D-01 -2.8426313941441D-01  1.6564347624860D+00
    81  8.0000000000000D-01 -2.9612493330034D-01  1.5900367310965D+00
    82  8.1000000000000D-01 -3.0489486404063D-01  1.5171161447937D+00
    83  8.2000000000000D-01 -3.1069944168092D-01  1.4383781911377D+00
    84  8.3000000000000D-01 -3.1368695399268D-01  1.3546036584650D+00
    85  8.4000000000000D-01 -3.1402525751210D-01  1.2666372846561D+00
    86  8.5000000000000D-01 -3.1189931708475D-01  1.1753748759432D+00
    87  8.6000000000000D-01 -3.0750853572948D-01  1.0817494297108D+00
    88  8.7000000000000D-01 -3.0106392058973D-01  9.8671651675991D-01
    89  8.8000000000000D-01 -2.9278513381863D-01  8.9123919505634D-01
    90  8.9000000000000D-01 -2.8289747938190D-01  7.9627273819389D-01
    91  9.0000000000000D-01 -2.7162887790921D-01  7.0274946741651D-01
    92  9.1000000000000D-01 -2.5920688185468D-01  6.1156397589757D-01
    93  9.2000000000000D-01 -2.4585578233090D-01  5.2355902804152D-01
    94  9.3000000000000D-01 -2.3179385707236D-01  4.3951240492695D-01
    95  9.4000000000000D-01 -2.1723080609685D-01  3.6012494985382D-01
    96  9.5000000000000D-01 -2.0236541782029D-01  2.8601004559654D-01
    97  9.6000000000000D-01 -1.8738350372802D-01  2.1768472789395D-01
    98  9.7000000000000D-01 -1.7245613420428D-01  1.5556260787713D-01
    99  9.8000000000000D-01 -1.5773820218547D-01  9.9948741916779D-02
   100  9.9000000000000D-01 -1.4336733453258D-01  5.1036548466344D-02
   101  1.0000000000000D+00 -1.2946316404250D-01  8.9068314993110D-03
   102  1.0100000000000D+00 -1.1612696773263D-01 -2.6471071526652D-02
   103  1.0200000000000D+00 -1.0344166959687D-01 -5.5236041690013D-02
   104  1.0300000000000D+00 -9.1472198664299D-02 -7.7629897087237D-02
   105  1.0400000000000D+00 -8.0266185776384D-02 -9.3990186407131D-02
   106  1.0500000000000D+00 -6.9854976149473D-02 -1.0474120226267D-01
   107  1.0600000000000D+00 -6.0254927586626D-02 -1.1038339971889D-01
   108  1.0700000000000D+00 -5.1468958917361D-02 -1.1148143527867D-01
   109  1.0800000000000D+00 -4.3488307894236D-02 -1.0865107169502D-01
   110  1.0900000000000D+00 -3.6294453379996D-02 -1.0254521854175D-01
   111  1.1000000000000D+00 -2.9861153584370D-02 -9.3839395595915D-02
   112  1.1100000000000D+00 -2.4156549068677D-02 -8.3216922739710D-02
   113  1.1200000000000D+00 -1.9145278249384D-02 -7.1354145201356D-02
   114  1.1300000000000D+00 -1.4790552738303D-02 -5.8906004469815D-02
   115  1.1400000000000D+00 -1.1056140323920D-02 -4.6492261982829D-02
   116  1.1500000000000D+00 -7.9082051373357D-03 -3.4684671958205D-02
   117  1.1600000000000D+00 -5.3169574034621D-03 -2.3995382734510D-02
   118  1.1700000000000D+00 -3.2593211693471D-03 -1.4871738681147D-02
   119  1.1800000000000D+00 -1.7095337886647D-03 -7.6478103563366D-03
   120  1.1900000000000D+00 -6.7113520752269D-04 -2.6543364624330D-03
   121  1.2000000000000D+00 -1.6626174062296D-04 -1.5982188836088D-04
   122  1.2100000000000D+00 -1.4019325476153D-05  3.4484024273298D-04
   123  1.2200000000000D+00 -9.7191113939725D-09 -5.8516354120901D-07
   124  1.2300000000000D+00 -2.0200054729495D-06 -5.4520570946707D-05
   125  1.2400000000000D+00  1.2723008971792D-07  1.3846007838296D-05
   126  1.2500000000000D+00  2.2569659784231D-08 -1.2508007555554D-07
   127  1.2600000000000D+00  1.2116414678806D-07 -6.7148644595260D-07
   128  1.2700000000000D+00  0.0000000000000D+00  0.0000000000000D+00
   129  1.2800000000000D+00  0.0000000000000D+00  0.0000000000000D+00
   130  1.2900000000000D+00  0.0000000000000D+00  0.0000000000000D+00
   131  1.3000000000000D+00  0.0000000000000D+00  0.0000000000000D+00
   132  1.3100000000000D+00  0.0000000000000D+00  0.0000000000000D+00
   133  1.3200000000000D+00  0.0000000000000D+00  0.0000000000000D+00
   134  1.3300000000000D+00  0.0000000000000D+00  0.0000000000000D+00
   135  1.3400000000000D+00  0.0000000000000D+00  0.0000000000000D+00
   136  1.3500000000000D+00  0.0000000000000D+00  0.0000000000000D+00
   137  1.3600000000000D+00  0.0000000000000D+00  0.0000000000000D+00
   138  1.3700000000000D+00  0.0000000000000D+00  0.0000000000000D+00
   139  1.3800000000000D+00  0.0000000000000D+00  0.0000000000000D+00
   140  1.3900000000000D+00  0.0000000000000D+00  0.0000000000000D+00
   141  1.4000000000000D+00  0.0000000000000D+00  0.0000000000000D+00
   142  1.4100000000000D+00  0.0000000000000D+00  0.0000000000000D+00
   143  1.4200000000000D+00  0.0000000000000D+00  0.0000000000000D+00
   144  1.4300000000000D+00  0.0000000000000D+00  0.0000000000000D+00
   145  1.4400000000000D+00  0.0000000000000D+00  0.0000000000000D+00
   146  1.4500000000000D+00  0.0000000000000D+00  0.0000000000000D+00
   147  1.4600000000000D+00  0.0000000000000D+00  0.0000000000000D+00
   148  1.4700000000000D+00  0.0000000000000D+00  0.0000000000000D+00
   149  1.4800000000000D+00  0.0000000000000D+00  0.0000000000000D+00
   150  1.4900000000000D+00  0.0000000000000D+00  0.0000000000000D+00
   151  1.5000000000000D+00  0.0000000000000D+00  0.0000000000000D+00
   152  1.5100000000000D+00  0.0000000000000D+00  0.0000000000000D+00
   153  1.5200000000000D+00  0.0000000000000D+00  0.0000000000000D+00
   154  1.5300000000000D+00  0.0000000000000D+00  0.0000000000000D+00
   155  1.5400000000000D+00  0.0000000000000D+00  0.0000000000000D+00
   156  1.5500000000000D+00  0.0000000000000D+00  0.0000000000000D+00
   157  1.5600000000000D+00  0.0000000000000D+00  0.0000000000000D+00
   158  1.5700000000000D+00  0.0000000000000D+00  0.0000000000000D+00
   159  1.5800000000000D+00  0.0000000000000D+00  0.0000000000000D+00
   160  1.5900000000000D+00  0.0000000000000D+00  0.0000000000000D+00
   161  1.6000000000000D+00  0.0000000000000D+00  0.0000000000000D+00
   162  1.6100000000000D+00  0.0000000000000D+00  0.0000000000000D+00
   163  1.6200000000000D+00  0.0000000000000D+00  0.0000000000000D+00
   164  1.6300000000000D+00  0.0000000000000D+00  0.0000000000000D+00
   165  1.6400000000000D+00  0.0000000000000D+00  0.0000000000000D+00
   166  1.6500000000000D+00  0.0000000000000D+00  0.0000000000000D+00
   167  1.6600000000000D+00  0.0000000000000D+00  0.0000000000000D+00
   168  1.6700000000000D+00  0.0000000000000D+00  0.0000000000000D+00
   169  1.6800000000000D+00  0.0000000000000D+00  0.0000000000000D+00
   170  1.6900000000000D+00  0.0000000000000D+00  0.0000000000000D+00
   171  1.7000000000000D+00  0.0000000000000D+00  0.0000000000000D+00
   172  1.7100000000000D+00  0.0000000000000D+00  0.0000000000000D+00
   173  1.7200000000000D+00  0.0000000000000D+00  0.0000000000000D+00
   174  1.7300000000000D+00  0.0000000000000D+00  0.0000000000000D+00
   175  1.7400000000000D+00  0.0000000000000D+00  0.0000000000000D+00
   176  1.7500000000000D+00  0.0000000000000D+00  0.0000000000000D+00
   177  1.7600000000000D+00  0.0000000000000D+00  0.0000000000000D+00
   178  1.7700000000000D+00  0.0000000000000D+00  0.0000000000000D+00
   179  1.7800000000000D+00  0.0000000000000D+00  0.0000000000000D+00
   180  1.7900000000000D+00  0.0000000000000D+00  0.0000000000000D+00
   181  1.8000000000000D+00  0.0000000000000D+00  0.0000000000000D+00
   182  1.8100000000000D+00  0.0000000000000D+00  0.0000000000000D+00
   183  1.8200000000000D+00  0.0000000000000D+00  0.0000000000000D+00
   184  1.8300000000000D+00  0.0000000000000D+00  0.0000000000000D+00
   185  1.8400000000000D+00  0.0000000000000D+00  0.0000000000000D+00
   186  1.8500000000000D+00  0.0000000000000D+00  0.0000000000000D+00
   187  1.8600000000000D+00  0.0000000000000D+00  0.0000000000000D+00
   188  1.8700000000000D+00  0.0000000000000D+00  0.0000000000000D+00
   189  1.8800000000000D+00  0.0000000000000D+00  0.0000000000000D+00
   190  1.8900000000000D+00  0.0000000000000D+00  0.0000000000000D+00
   191  1.9000000000000D+00  0.0000000000000D+00  0.0000000000000D+00
   192  1.9100000000000D+00  0.0000000000000D+00  0.0000000000000D+00
   193  1.9200000000000D+00  0.0000000000000D+00  0.0000000000000D+00
   194  1.9300000000000D+00  0.0000000000000D+00  0.0000000000000D+00
   195  1.9400000000000D+00  0.0000000000000D+00  0.0000000000000D+00
   196  1.9500000000000D+00  0.0000000000000D+00  0.0000000000000D+00
   197  1.9600000000000D+00  0.0000000000000D+00  0.0000000000000D+00
   198  1.9700000000000D+00  0.0000000000000D+00  0.0000000000000D+00
   199  1.9800000000000D+00  0.0000000000000D+00  0.0000000000000D+00
   200  1.9900000000000D+00  0.0000000000000D+00  0.0000000000000D+00
   201  2.0000000000000D+00  0.0000000000000D+00  0.0000000000000D+00
   202  2.0100000000000D+00  0.0000000000000D+00  0.0000000000000D+00
   203  2.0200000000000D+00  0.0000000000000D+00  0.0000000000000D+00
   204  2.0300000000000D+00  0.0000000000000D+00  0.0000000000000D+00
   205  2.0400000000000D+00  0.0000000000000D+00  0.0000000000000D+00
   206  2.0500000000000D+00  0.0000000000000D+00  0.0000000000000D+00
   207  2.0600000000000D+00  0.0000000000000D+00  0.0000000000000D+00
   208  2.0700000000000D+00  0.0000000000000D+00  0.0000000000000D+00
   209  2.0800000000000D+00  0.0000000000000D+00  0.0000000000000D+00
   210  2.0900000000000D+00  0.0000000000000D+00  0.0000000000000D+00
   211  2.1000000000000D+00  0.0000000000000D+00  0.0000000000000D+00
   212  2.1100000000000D+00  0.0000000000000D+00  0.0000000000000D+00
   213  2.1200000000000D+00  0.0000000000000D+00  0.0000000000000D+00
   214  2.1300000000000D+00  0.0000000000000D+00  0.0000000000000D+00
   215  2.1400000000000D+00  0.0000000000000D+00  0.0000000000000D+00
   216  2.1500000000000D+00  0.0000000000000D+00  0.0000000000000D+00
   217  2.1600000000000D+00  0.0000000000000D+00  0.0000000000000D+00
   218  2.1700000000000D+00  0.0000000000000D+00  0.0000000000000D+00
   219  2.1800000000000D+00  0.0000000000000D+00  0.0000000000000D+00
   220  2.1900000000000D+00  0.0000000000000D+00  0.0000000000000D+00
   221  2.2000000000000D+00  0.0000000000000D+00  0.0000000000000D+00
   222  2.2100000000000D+00  0.0000000000000D+00  0.0000000000000D+00
   223  2.2200000000000D+00  0.0000000000000D+00  0.0000000000000D+00
   224  2.2300000000000D+00  0.0000000000000D+00  0.0000000000000D+00
   225  2.2400000000000D+00  0.0000000000000D+00  0.0000000000000D+00
   226  2.2500000000000D+00  0.0000000000000D+00  0.0000000000000D+00
   227  2.2600000000000D+00  0.0000000000000D+00  0.0000000000000D+00
   228  2.2700000000000D+00  0.0000000000000D+00  0.0000000000000D+00
   229  2.2800000000000D+00  0.0000000000000D+00  0.0000000000000D+00
   230  2.2900000000000D+00  0.0000000000000D+00  0.0000000000000D+00
   231  2.3000000000000D+00  0.0000000000000D+00  0.0000000000000D+00
   232  2.3100000000000D+00  0.0000000000000D+00  0.0000000000000D+00
   233  2.3200000000000D+00  0.0000000000000D+00  0.0000000000000D+00
   234  2.3300000000000D+00  0.0000000000000D+00  0.0000000000000D+00
   235  2.3400000000000D+00  0.0000000000000D+00  0.0000000000000D+00
   236  2.3500000000000D+00  0.0000000000000D+00  0.0000000000000D+00
   237  2.3600000000000D+00  0.0000000000000D+00  0.0000000000000D+00
   238  2.3700000000000D+00  0.0000000000000D+00  0.0000000000000D+00
   239  2.3800000000000D+00  0.0000000000000D+00  0.0000000000000D+00
   240  2.3900000000000D+00  0.0000000000000D+00  0.0000000000000D+00
   241  2.4000000000000D+00  0.0000000000000D+00  0.0000000000000D+00
   242  2.4100000000000D+00  0.0000000000000D+00  0.0000000000000D+00
   243  2.4200000000000D+00  0.0000000000000D+00  0.0000000000000D+00
   244  2.4300000000000D+00  0.0000000000000D+00  0.0000000000000D+00
   245  2.4400000000000D+00  0.0000000000000D+00  0.0000000000000D+00
   246  2.4500000000000D+00  0.0000000000000D+00  0.0000000000000D+00
   247  2.4600000000000D+00  0.0000000000000D+00  0.0000000000000D+00
   248  2.4700000000000D+00  0.0000000000000D+00  0.0000000000000D+00
   249  2.4800000000000D+00  0.0000000000000D+00  0.0000000000000D+00
   250  2.4900000000000D+00  0.0000000000000D+00  0.0000000000000D+00
   251  2.5000000000000D+00  0.0000000000000D+00  0.0000000000000D+00
   252  2.5100000000000D+00  0.0000000000000D+00  0.0000000000000D+00
   253  2.5200000000000D+00  0.0000000000000D+00  0.0000000000000D+00
   254  2.5300000000000D+00  0.0000000000000D+00  0.0000000000000D+00
   255  2.5400000000000D+00  0.0000000000000D+00  0.0000000000000D+00
   256  2.5500000000000D+00  0.0000000000000D+00  0.0000000000000D+00
   257  2.5600000000000D+00  0.0000000000000D+00  0.0000000000000D+00
   258  2.5700000000000D+00  0.0000000000000D+00  0.0000000000000D+00
   259  2.5800000000000D+00  0.0000000000000D+00  0.0000000000000D+00
   260  2.5900000000000D+00  0.0000000000000D+00  0.0000000000000D+00
   261  2.6000000000000D+00  0.0000000000000D+00  0.0000000000000D+00
   262  2.6100000000000D+00  0.0000000000000D+00  0.0000000000000D+00
   263  2.6200000000000D+00  0.0000000000000D+00  0.0000000000000D+00
   264  2.6300000000000D+00  0.0000000000000D+00  0.0000000000000D+00
   265  2.6400000000000D+00  0.0000000000000D+00  0.0000000000000D+00
   266  2.6500000000000D+00  0.0000000000000D+00  0.0000000000000D+00
   267  2.6600000000000D+00  0.0000000000000D+00  0.0000000000000D+00
   268  2.6700000000000D+00  0.0000000000000D+00  0.0000000000000D+00
   269  2.6800000000000D+00  0.0000000000000D+00  0.0000000000000D+00
   270  2.6900000000000D+00  0.0000000000000D+00  0.0000000000000D+00
   271  2.7000000000000D+00  0.0000000000000D+00  0.0000000000000D+00
   272  2.7100000000000D+00  0.0000000000000D+00  0.0000000000000D+00
   273  2.7200000000000D+00  0.0000000000000D+00  0.0000000000000D+00
   274  2.7300000000000D+00  0.0000000000000D+00  0.0000000000000D+00
   275  2.7400000000000D+00  0.0000000000000D+00  0.0000000000000D+00
   276  2.7500000000000D+00  0.0000000000000D+00  0.0000000000000D+00
   277  2.7600000000000D+00  0.0000000000000D+00  0.0000000000000D+00
   278  2.7700000000000D+00  0.0000000000000D+00  0.0000000000000D+00
   279  2.7800000000000D+00  0.0000000000000D+00  0.0000000000000D+00
   280  2.7900000000000D+00  0.0000000000000D+00  0.0000000000000D+00
   281  2.8000000000000D+00  0.0000000000000D+00  0.0000000000000D+00
   282  2.8100000000000D+00  0.0000000000000D+00  0.0000000000000D+00
   283  2.8200000000000D+00  0.0000000000000D+00  0.0000000000000D+00
   284  2.8300000000000D+00  0.0000000000000D+00  0.0000000000000D+00
   285  2.8400000000000D+00  0.0000000000000D+00  0.0000000000000D+00
   286  2.8500000000000D+00  0.0000000000000D+00  0.0000000000000D+00
   287  2.8600000000000D+00  0.0000000000000D+00  0.0000000000000D+00
   288  2.8700000000000D+00  0.0000000000000D+00  0.0000000000000D+00
   289  2.8800000000000D+00  0.0000000000000D+00  0.0000000000000D+00
   290  2.8900000000000D+00  0.0000000000000D+00  0.0000000000000D+00
   291  2.9000000000000D+00  0.0000000000000D+00  0.0000000000000D+00
   292  2.9100000000000D+00  0.0000000000000D+00  0.0000000000000D+00
   293  2.9200000000000D+00  0.0000000000000D+00  0.0000000000000D+00
   294  2.9300000000000D+00  0.0000000000000D+00  0.0000000000000D+00
   295  2.9400000000000D+00  0.0000000000000D+00  0.0000000000000D+00
   296  2.9500000000000D+00  0.0000000000000D+00  0.0000000000000D+00
   297  2.9600000000000D+00  0.0000000000000D+00  0.0000000000000D+00
   298  2.9700000000000D+00  0.0000000000000D+00  0.0000000000000D+00
   299  2.9800000000000D+00  0.0000000000000D+00  0.0000000000000D+00
   300  2.9900000000000D+00  0.0000000000000D+00  0.0000000000000D+00
   301  3.0000000000000D+00  0.0000000000000D+00  0.0000000000000D+00
   302  3.0100000000000D+00  0.0000000000000D+00  0.0000000000000D+00
   303  3.0200000000000D+00  0.0000000000000D+00  0.0000000000000D+00
   304  3.0300000000000D+00  0.0000000000000D+00  0.0000000000000D+00
   305  3.0400000000000D+00  0.0000000000000D+00  0.0000000000000D+00
   306  3.0500000000000D+00  0.0000000000000D+00  0.0000000000000D+00
   307  3.0600000000000D+00  0.0000000000000D+00  0.0000000000000D+00
   308  3.0700000000000D+00  0.0000000000000D+00  0.0000000000000D+00
   309  3.0800000000000D+00  0.0000000000000D+00  0.0000000000000D+00
   310  3.0900000000000D+00  0.0000000000000D+00  0.0000000000000D+00
   311  3.1000000000000D+00  0.0000000000000D+00  0.0000000000000D+00
   312  3.1100000000000D+00  0.0000000000000D+00  0.0000000000000D+00
   313  3.1200000000000D+00  0.0000000000000D+00  0.0000000000000D+00
   314  3.1300000000000D+00  0.0000000000000D+00  0.0000000000000D+00
   315  3.1400000000000D+00  0.0000000000000D+00  0.0000000000000D+00
   316  3.1500000000000D+00  0.0000000000000D+00  0.0000000000000D+00
   317  3.1600000000000D+00  0.0000000000000D+00  0.0000000000000D+00
   318  3.1700000000000D+00  0.0000000000000D+00  0.0000000000000D+00
   319  3.1800000000000D+00  0.0000000000000D+00  0.0000000000000D+00
   320  3.1900000000000D+00  0.0000000000000D+00  0.0000000000000D+00
   321  3.2000000000000D+00  0.0000000000000D+00  0.0000000000000D+00
   322  3.2100000000000D+00  0.0000000000000D+00  0.0000000000000D+00
   323  3.2200000000000D+00  0.0000000000000D+00  0.0000000000000D+00
   324  3.2300000000000D+00  0.0000000000000D+00  0.0000000000000D+00
   325  3.2400000000000D+00  0.0000000000000D+00  0.0000000000000D+00
   326  3.2500000000000D+00  0.0000000000000D+00  0.0000000000000D+00
   327  3.2600000000000D+00  0.0000000000000D+00  0.0000000000000D+00
   328  3.2700000000000D+00  0.0000000000000D+00  0.0000000000000D+00
   329  3.2800000000000D+00  0.0000000000000D+00  0.0000000000000D+00
   330  3.2900000000000D+00  0.0000000000000D+00  0.0000000000000D+00
   331  3.3000000000000D+00  0.0000000000000D+00  0.0000000000000D+00
   332  3.3100000000000D+00  0.0000000000000D+00  0.0000000000000D+00
   333  3.3200000000000D+00  0.0000000000000D+00  0.0000000000000D+00
   334  3.3300000000000D+00  0.0000000000000D+00  0.0000000000000D+00
   335  3.3400000000000D+00  0.0000000000000D+00  0.0000000000000D+00
   336  3.3500000000000D+00  0.0000000000000D+00  0.0000000000000D+00
   337  3.3600000000000D+00  0.0000000000000D+00  0.0000000000000D+00
   338  3.3700000000000D+00  0.0000000000000D+00  0.0000000000000D+00
   339  3.3800000000000D+00  0.0000000000000D+00  0.0000000000000D+00
   340  3.3900000000000D+00  0.0000000000000D+00  0.0000000000000D+00
   341  3.4000000000000D+00  0.0000000000000D+00  0.0000000000000D+00
   342  3.4100000000000D+00  0.0000000000000D+00  0.0000000000000D+00
   343  3.4200000000000D+00  0.0000000000000D+00  0.0000000000000D+00
   344  3.4300000000000D+00  0.0000000000000D+00  0.0000000000000D+00
   345  3.4400000000000D+00  0.0000000000000D+00  0.0000000000000D+00
   346  3.4500000000000D+00  0.0000000000000D+00  0.0000000000000D+00
   347  3.4600000000000D+00  0.0000000000000D+00  0.0000000000000D+00
   348  3.4700000000000D+00  0.0000000000000D+00  0.0000000000000D+00
   349  3.4800000000000D+00  0.0000000000000D+00  0.0000000000000D+00
   350  3.4900000000000D+00  0.0000000000000D+00  0.0000000000000D+00
   351  3.5000000000000D+00  0.0000000000000D+00  0.0000000000000D+00
   352  3.5100000000000D+00  0.0000000000000D+00  0.0000000000000D+00
   353  3.5200000000000D+00  0.0000000000000D+00  0.0000000000000D+00
   354  3.5300000000000D+00  0.0000000000000D+00  0.0000000000000D+00
   355  3.5400000000000D+00  0.0000000000000D+00  0.0000000000000D+00
   356  3.5500000000000D+00  0.0000000000000D+00  0.0000000000000D+00
   357  3.5600000000000D+00  0.0000000000000D+00  0.0000000000000D+00
   358  3.5700000000000D+00  0.0000000000000D+00  0.0000000000000D+00
   359  3.5800000000000D+00  0.0000000000000D+00  0.0000000000000D+00
   360  3.5900000000000D+00  0.0000000000000D+00  0.0000000000000D+00
   361  3.6000000000000D+00  0.0000000000000D+00  0.0000000000000D+00
   362  3.6100000000000D+00  0.0000000000000D+00  0.0000000000000D+00
   363  3.6200000000000D+00  0.0000000000000D+00  0.0000000000000D+00
   364  3.6300000000000D+00  0.0000000000000D+00  0.0000000000000D+00
   365  3.6400000000000D+00  0.0000000000000D+00  0.0000000000000D+00
   366  3.6500000000000D+00  0.0000000000000D+00  0.0000000000000D+00
   367  3.6600000000000D+00  0.0000000000000D+00  0.0000000000000D+00
   368  3.6700000000000D+00  0.0000000000000D+00  0.0000000000000D+00
   369  3.6800000000000D+00  0.0000000000000D+00  0.0000000000000D+00
   370  3.6900000000000D+00  0.0000000000000D+00  0.0000000000000D+00
   371  3.7000000000000D+00  0.0000000000000D+00  0.0000000000000D+00
   372  3.7100000000000D+00  0.0000000000000D+00  0.0000000000000D+00
   373  3.7200000000000D+00  0.0000000000000D+00  0.0000000000000D+00
   374  3.7300000000000D+00  0.0000000000000D+00  0.0000000000000D+00
   375  3.7400000000000D+00  0.0000000000000D+00  0.0000000000000D+00
   376  3.7500000000000D+00  0.0000000000000D+00  0.0000000000000D+00
   377  3.7600000000000D+00  0.0000000000000D+00  0.0000000000000D+00
   378  3.7700000000000D+00  0.0000000000000D+00  0.0000000000000D+00
   379  3.7800000000000D+00  0.0000000000000D+00  0.0000000000000D+00
   380  3.7900000000000D+00  0.0000000000000D+00  0.0000000000000D+00
   381  3.8000000000000D+00  0.0000000000000D+00  0.0000000000000D+00
   382  3.8100000000000D+00  0.0000000000000D+00  0.0000000000000D+00
   383  3.8200000000000D+00  0.0000000000000D+00  0.0000000000000D+00
   384  3.8300000000000D+00  0.0000000000000D+00  0.0000000000000D+00
   385  3.8400000000000D+00  0.0000000000000D+00  0.0000000000000D+00
   386  3.8500000000000D+00  0.0000000000000D+00  0.0000000000000D+00
   387  3.8600000000000D+00  0.0000000000000D+00  0.0000000000000D+00
   388  3.8700000000000D+00  0.0000000000000D+00  0.0000000000000D+00
   389  3.8800000000000D+00  0.0000000000000D+00  0.0000000000000D+00
   390  3.8900000000000D+00  0.0000000000000D+00  0.0000000000000D+00
   391  3.9000000000000D+00  0.0000000000000D+00  0.0000000000000D+00
   392  3.9100000000000D+00  0.0000000000000D+00  0.0000000000000D+00
   393  3.9200000000000D+00  0.0000000000000D+00  0.0000000000000D+00
   394  3.9300000000000D+00  0.0000000000000D+00  0.0000000000000D+00
   395  3.9400000000000D+00  0.0000000000000D+00  0.0000000000000D+00
   396  3.9500000000000D+00  0.0000000000000D+00  0.0000000000000D+00
   397  3.9600000000000D+00  0.0000000000000D+00  0.0000000000000D+00
   398  3.9700000000000D+00  0.0000000000000D+00  0.0000000000000D+00
   399  3.9800000000000D+00  0.0000000000000D+00  0.0000000000000D+00
   400  3.9900000000000D+00  0.0000000000000D+00  0.0000000000000D+00
   401  4.0000000000000D+00  0.0000000000000D+00  0.0000000000000D+00
   402  4.0100000000000D+00  0.0000000000000D+00  0.0000000000000D+00
   403  4.0200000000000D+00  0.0000000000000D+00  0.0000000000000D+00
   404  4.0300000000000D+00  0.0000000000000D+00  0.0000000000000D+00
   405  4.0400000000000D+00  0.0000000000000D+00  0.0000000000000D+00
   406  4.0500000000000D+00  0.0000000000000D+00  0.0000000000000D+00
   407  4.0600000000000D+00  0.0000000000000D+00  0.0000000000000D+00
   408  4.0700000000000D+00  0.0000000000000D+00  0.0000000000000D+00
   409  4.0800000000000D+00  0.0000000000000D+00  0.0000000000000D+00
   410  4.0900000000000D+00  0.0000000000000D+00  0.0000000000000D+00
   411  4.1000000000000D+00  0.0000000000000D+00  0.0000000000000D+00
   412  4.1100000000000D+00  0.0000000000000D+00  0.0000000000000D+00
   413  4.1200000000000D+00  0.0000000000000D+00  0.0000000000000D+00
   414  4.1300000000000D+00  0.0000000000000D+00  0.0000000000000D+00
   415  4.1400000000000D+00  0.0000000000000D+00  0.0000000000000D+00
   416  4.1500000000000D+00  0.0000000000000D+00  0.0000000000000D+00
   417  4.1600000000000D+00  0.0000000000000D+00  0.0000000000000D+00
   418  4.1700000000000D+00  0.0000000000000D+00  0.0000000000000D+00
   419  4.1800000000000D+00  0.0000000000000D+00  0.0000000000000D+00
   420  4.1900000000000D+00  0.0000000000000D+00  0.0000000000000D+00
   421  4.2000000000000D+00  0.0000000000000D+00  0.0000000000000D+00
   422  4.2100000000000D+00  0.0000000000000D+00  0.0000000000000D+00
   423  4.2200000000000D+00  0.0000000000000D+00  0.0000000000000D+00