Sr    ONCVPSP-3.3.0  r_core=   1.66721   1.31335   1.51547
     38.0000     10.0000      220408    zatom,zion,pspd
     8       2   2     4   600     0    pspcod,pspxc,lmax,lloc,mmax,r2well
  5.99000000  0.00000000  0.00000000    rchrg fchrg qchrg
     2     2     2     0     0    nproj
     1     1           extension_switch
   0                         1.0066474119295D+01  1.0543863526988D+00
     1  0.0000000000000D+00 -7.1455286132505D-11  3.8179523431658D-10
     2  1.0000000000000D-02  4.2857390606160D-02 -2.5141333792317D-02
     3  2.0000000000000D-02  8.5676950589337D-02 -5.0181077431743D-02
     4  3.0000000000000D-02  1.2842092811220D-01 -7.5018391498388D-02
     5  4.0000000000000D-02  1.7105172764135D-01 -9.9553929418189D-02
     6  5.0000000000000D-02  2.1353198494927D-01 -1.2369056243342D-01
     7  6.0000000000000D-02  2.5582463838749D-01 -1.4733407910356D-01
     8  7.0000000000000D-02  2.9789299527295D-01 -1.7039385129938D-01
     9  8.0000000000000D-02  3.3970079230090D-01 -1.9278345903457D-01
    10  9.0000000000000D-02  3.8121224898557D-01 -2.1442126694983D-01
    11  1.0000000000000D-01  4.2239211323300D-01 -2.3523094581687D-01
    12  1.1000000000000D-01  4.6320569826767D-01 -2.5514193306103D-01
    13  1.2000000000000D-01  5.0361891026475D-01 -2.7408982700250D-01
    14  1.3000000000000D-01  5.4359826618107D-01 -2.9201671028164D-01
    15  1.4000000000000D-01  5.8311090142914D-01 -3.0887139875464D-01
    16  1.5000000000000D-01  6.2212456719732D-01 -3.2460961301396D-01
    17  1.6000000000000D-01  6.6060761738421D-01 -3.3919407059355D-01
    18  1.7000000000000D-01  6.9852898528430D-01 -3.5259449785295D-01
    19  1.8000000000000D-01  7.3585815033273D-01 -3.6478756148661D-01
    20  1.9000000000000D-01  7.7256509538789D-01 -3.7575672056479D-01
    21  2.0000000000000D-01  8.0862025519893D-01 -3.8549200097004D-01
    22  2.1000000000000D-01  8.4399445686965D-01 -3.9398969503770D-01
    23  2.2000000000000D-01  8.7865885328755D-01 -4.0125199012998D-01
    24  2.3000000000000D-01  9.1258485063599D-01 -4.0728653075978D-01
    25  2.4000000000000D-01  9.4574403124588D-01 -4.1210591972370D-01
    26  2.5000000000000D-01  9.7810807316882D-01 -4.1572716449246D-01
    27  2.6000000000000D-01  1.0096486679655D+00 -4.1817107583271D-01
    28  2.7000000000000D-01  1.0403374382979D+00 -4.1946162628824D-01
    29  2.8000000000000D-01  1.0701458569918D+00 -4.1962527672178D-01
    30  2.9000000000000D-01  1.0990451692948D+00 -4.1869027960478D-01
    31  3.0000000000000D-01  1.1270063200922D+00 -4.1668596813457D-01
    32  3.1000000000000D-01  1.1539998878607D+00 -4.1364204054964D-01
    33  3.2000000000000D-01  1.1799960271359D+00 -4.0958784920169D-01
    34  3.3000000000000D-01  1.2049644212372D+00 -4.0455170402188D-01
    35  3.4000000000000D-01  1.2288742469480D+00 -3.9856019998718D-01
    36  3.5000000000000D-01  1.2516941527712D+00 -3.9163757804849D-01
    37  3.6000000000000D-01  1.2733922522834D+00 -3.8380512872657D-01
    38  3.7000000000000D-01  1.2939361339934D+00 -3.7508064721314D-01
    39  3.8000000000000D-01  1.3132928889654D+00 -3.6547794833825D-01
    40  3.9000000000000D-01  1.3314291573091D+00 -3.5500644918200D-01
    41  4.0000000000000D-01  1.3483111944539D+00 -3.4367082642461D-01
    42  4.1000000000000D-01  1.3639049579250D+00 -3.3147075474980D-01
    43  4.2000000000000D-01  1.3781762151227D+00 -3.1840073174868D-01
    44  4.3000000000000D-01  1.3910906723768D+00 -3.0444999382390D-01
    45  4.4000000000000D-01  1.4026141252999D+00 -2.8960252657408D-01
    46  4.5000000000000D-01  1.4127126302168D+00 -2.7383717205928D-01
    47  4.6000000000000D-01  1.4213526961800D+00 -2.5712783421740D-01
    48  4.7000000000000D-01  1.4285014968210D+00 -2.3944378253315D-01
    49  4.8000000000000D-01  1.4341271010163D+00 -2.2075005286601D-01
    50  4.9000000000000D-01  1.4381987210838D+00 -2.0100794313607D-01
    51  5.0000000000000D-01  1.4406869769596D+00 -1.8017560035848D-01
    52  5.1000000000000D-01  1.4415641745555D+00 -1.5820869432300D-01
    53  5.2000000000000D-01  1.4408045962459D+00 -1.3506117204831D-01
    54  5.3000000000000D-01  1.4383848012080D+00 -1.1068608601554D-01
    55  5.4000000000000D-01  1.4342839331193D+00 -8.5036488113127D-02
    56  5.5000000000000D-01  1.4284840325205D+00 -5.8066380222684D-02
    57  5.6000000000000D-01  1.4209703509798D+00 -2.9731711452465D-02
    58  5.7000000000000D-01  1.4117316640414D+00  8.5888062408746D-06
    59  5.8000000000000D-01  1.4007605798181D+00  3.1191553549645D-02
    60  5.9000000000000D-01  1.3880538399951D+00  6.3849108722601D-02
    61  6.0000000000000D-01  1.3736126099457D+00  9.8007004321214D-02
    62  6.1000000000000D-01  1.3574427546291D+00  1.3368375904619D-01
    63  6.2000000000000D-01  1.3395550969447D+00  1.7088963173340D-01
    64  6.3000000000000D-01  1.3199656552497D+00  2.0962563286340D-01
    65  6.4000000000000D-01  1.2986958568248D+00  2.4988258937693D-01
    66  6.5000000000000D-01  1.2757727241767D+00  2.9164027580061D-01
    67  6.6000000000000D-01  1.2512290312102D+00  3.3486662431080D-01
    68  6.7000000000000D-01  1.2251034264839D+00  3.7951702583729D-01
    69  6.8000000000000D-01  1.1974405209712D+00  4.2553373363854D-01
    70  6.9000000000000D-01  1.1682909379979D+00  4.7284537995949D-01
    71  7.0000000000000D-01  1.1377113233030D+00  5.2136661543178D-01
    72  7.1000000000000D-01  1.1057643134716D+00  5.7099787979061D-01
    73  7.2000000000000D-01  1.0725184613263D+00  6.2162531128258D-01
    74  7.3000000000000D-01  1.0380481172146D+00  6.7312080081912D-01
    75  7.4000000000000D-01  1.0024332655090D+00  7.2534219552350D-01
    76  7.5000000000000D-01  9.6575931603028D-01  7.7813365482307D-01
    77  7.6000000000000D-01  9.2811685051154D-01  8.3132616067334D-01
    78  7.7000000000000D-01  8.8960132463911D-01  8.8473818188386D-01
    79  7.8000000000000D-01  8.5031272662874D-01  9.3817649086409D-01
    80  7.9000000000000D-01  8.1035519372204D-01  9.9143712942829D-01
    81  8.0000000000000D-01  7.6983658840924D-01  1.0443065186298D+00
    82  8.1000000000000D-01  7.2886803659982D-01  1.0965627059343D+00
    83  8.2000000000000D-01  6.8756343036616D-01  1.1479767414210D+00
    84  8.3000000000000D-01  6.4603889827285D-01  1.1983141731316D+00
    85  8.4000000000000D-01  6.0441224667180D-01  1.2473366501926D+00
    86  8.5000000000000D-01  5.6280237568625D-01  1.2948036209264D+00
    87  8.6000000000000D-01  5.2132867392155D-01  1.3404741118706D+00
    88  8.7000000000000D-01  4.8011039622314D-01  1.3841085724437D+00
    89  8.8000000000000D-01  4.3926602904932D-01  1.4254707689567D+00
    90  8.9000000000000D-01  3.9891264823483D-01  1.4643297107798D+00
    91  9.0000000000000D-01  3.5916527408829D-01  1.5004615907468D+00
    92  9.1000000000000D-01  3.2013622888956D-01  1.5336517213253D+00
    93  9.2000000000000D-01  2.8193450193083D-01  1.5636964477123D+00
    94  9.3000000000000D-01  2.4466512727496D-01  1.5904050188288D+00
    95  9.4000000000000D-01  2.0842857938702D-01  1.6136013972002D+00
    96  9.5000000000000D-01  1.7332019172746D-01  1.6331259889165D+00
    97  9.6000000000000D-01  1.3942960327951D-01  1.6488372752733D+00
    98  9.7000000000000D-01  1.0684023782221D-01  1.6606133282823D+00
    99  9.8000000000000D-01  7.5628820545448D-02  1.6683531930453D+00
   100  9.9000000000000D-01  4.5864936350191D-02  1.6719781209515D+00
   101  1.0000000000000D+00  1.7610633875833D-02  1.6714326388096D+00
   102  1.0100000000000D+00 -9.0799210433460D-03  1.6666854403470D+00
   103  1.0200000000000D+00 -3.4160739168172D-02  1.6577300879723D+00
   104  1.0300000000000D+00 -5.7594245991036D-02  1.6445855143564D+00
   105  1.0400000000000D+00 -7.9351461728784D-02  1.6272963149944D+00
   106  1.0500000000000D+00 -9.9412121194800D-02  1.6059328249203D+00
   107  1.0600000000000D+00 -1.1776473203198D-01  1.5805909745539D+00
   108  1.0700000000000D+00 -1.3440657030248D-01  1.5513919216815D+00
   109  1.0800000000000D+00 -1.4934361297376D-01  1.5184814587134D+00
   110  1.0900000000000D+00 -1.6259040729960D-01  1.4820291961684D+00
   111  1.1000000000000D+00 -1.7416987769635D-01  1.4422275257063D+00
   112  1.1100000000000D+00 -1.8411307118709D-01  1.3992903678816D+00
   113  1.1200000000000D+00 -1.9245884302178D-01  1.3534517119006D+00
   114  1.1300000000000D+00 -1.9925348455266D-01  1.3049639565016D+00
   115  1.1400000000000D+00 -2.0455029591419D-01  1.2540960629209D+00
   116  1.1500000000000D+00 -2.0840910654857D-01  1.2011315328161D+00
   117  1.1600000000000D+00 -2.1089574700356D-01  1.1463662255091D+00
   118  1.1700000000000D+00 -2.1208147578988D-01  1.0901060302947D+00
   119  1.1800000000000D+00 -2.1204236545689D-01  1.0326644109808D+00
   120  1.1900000000000D+00 -2.1085865236012D-01  9.7435984100704D-01
   121  1.2000000000000D+00 -2.0861405482647D-01  9.1551314832146D-01
   122  1.2100000000000D+00 -2.0539506458519D-01  8.5644478980521D-01
   123  1.2200000000000D+00 -2.0129021658904D-01  7.9747207590714D-01
   124  1.2300000000000D+00 -1.9638934236030D-01  7.3890636610677D-01
   125  1.2400000000000D+00 -1.9078281206593D-01  6.8105025601588D-01
   126  1.2500000000000D+00 -1.8456077056689D-01  6.2419477695877D-01
   127  1.2600000000000D+00 -1.7781237254654D-01  5.6861662815409D-01
   128  1.2700000000000D+00 -1.7062502126353D-01  5.1457545804322D-01
   129  1.2800000000000D+00 -1.6308361872850D-01  4.6231123294245D-01
   130  1.2900000000000D+00 -1.5526981842617D-01  4.1204162510172D-01
   131  1.3000000000000D+00 -1.4726135007468D-01  3.6395984459138D-01
   132  1.3100000000000D+00 -1.3913122048470D-01  3.1823167171160D-01
   133  1.3200000000000D+00 -1.3094710942044D-01  2.7499368099981D-01
   134  1.3300000000000D+00 -1.2277139318728D-01  2.3435566020270D-01
   135  1.3400000000000D+00 -1.1466131776565D-01  1.9640329211401D-01
   136  1.3500000000000D+00 -1.0666932755240D-01  1.6120137282606D-01
   137  1.3600000000000D+00 -9.8842803539724D-02  1.2879279362329D-01
   138  1.3700000000000D+00 -9.1223959703367D-02  9.9198431168467D-02
   139  1.3800000000000D+00 -8.3849809064658D-02  7.2417435466544D-02
   140  1.3900000000000D+00 -7.6752163033220D-02  4.8427585846871D-02
   141  1.4000000000000D+00 -6.9957630276031D-02  2.7185591515997D-02
   142  1.4100000000000D+00 -6.3487958992817D-02  8.6291751584682D-03
   143  1.4200000000000D+00 -5.7360218299464D-02 -7.3217543043756D-03
   144  1.4300000000000D+00 -5.1584223070869D-02 -2.0778898441007D-02
   145  1.4400000000000D+00 -4.6168970783779D-02 -3.1850716913633D-02
   146  1.4500000000000D+00 -4.1127501836616D-02 -4.0616105659004D-02
   147  1.4600000000000D+00 -3.6458933614656D-02 -4.7222337716283D-02
   148  1.4700000000000D+00 -3.2148711024617D-02 -5.1883582431213D-02
   149  1.4800000000000D+00 -2.8188172260371D-02 -5.4773625813444D-02
   150  1.4900000000000D+00 -2.4570276299308D-02 -5.6049665259259D-02
   151  1.5000000000000D+00 -2.1281763287239D-02 -5.5895899634787D-02
   152  1.5100000000000D+00 -1.8307396417020D-02 -5.4500382817847D-02
   153  1.5200000000000D+00 -1.5630865714629D-02 -5.2050325587603D-02
   154  1.5300000000000D+00 -1.3234587994567D-02 -4.8733530892957D-02
   155  1.5400000000000D+00 -1.1100223210398D-02 -4.4735874250593D-02
   156  1.5500000000000D+00 -9.2091338370209D-03 -4.0239110834500D-02
   157  1.5600000000000D+00 -7.5427956889392D-03 -3.5418950664088D-02
   158  1.5700000000000D+00 -6.0832022669059D-03 -3.0443166382469D-02
   159  1.5800000000000D+00 -4.8132497272440D-03 -2.5469797767396D-02
   160  1.5900000000000D+00 -3.7171000227825D-03 -2.0645463392926D-02
   161  1.6000000000000D+00 -2.7805158433248D-03 -1.6103806909887D-02
   162  1.6100000000000D+00 -1.9912637165448D-03 -1.1964786818855D-02
   163  1.6200000000000D+00 -1.3393629774151D-03 -8.3332718904656D-03
   164  1.6300000000000D+00 -8.1528192758055D-04 -5.2817579429102D-03
   165  1.6400000000000D+00 -4.1480599393136D-04 -2.8859475744097D-03
   166  1.6500000000000D+00 -1.4216959398658D-04 -1.2641918296913D-03
   167  1.6600000000000D+00  6.6275536644213D-06 -4.0251388017979D-04
   168  1.6700000000000D+00  5.0337224663544D-05 -6.1897264229076D-05
   169  1.6800000000000D+00  2.6298499450150D-05  1.2614428680478D-05
   170  1.6900000000000D+00 -4.8566501815559D-06 -4.4808414665168D-06
   171  1.7000000000000D+00 -7.5275785839033D-06 -9.1673941807300D-06
   172  1.7100000000000D+00  8.2622157206520D-07  4.7204977326191D-07
   173  1.7200000000000D+00  1.6662930230184D-06  1.1814867819608D-06
   174  1.7300000000000D+00 -4.7924009685126D-08  1.2272528674794D-07
   175  1.7400000000000D+00 -1.2849921583132D-07  3.2906476760599D-07
   176  1.7500000000000D+00  0.0000000000000D+00  0.0000000000000D+00
   177  1.7600000000000D+00  0.0000000000000D+00  0.0000000000000D+00
   178  1.7700000000000D+00  0.0000000000000D+00  0.0000000000000D+00
   179  1.7800000000000D+00  0.0000000000000D+00  0.0000000000000D+00
   180  1.7900000000000D+00  0.0000000000000D+00  0.0000000000000D+00
   181  1.8000000000000D+00  0.0000000000000D+00  0.0000000000000D+00
   182  1.8100000000000D+00  0.0000000000000D+00  0.0000000000000D+00
   183  1.8200000000000D+00  0.0000000000000D+00  0.0000000000000D+00
   184  1.8300000000000D+00  0.0000000000000D+00  0.0000000000000D+00
   185  1.8400000000000D+00  0.0000000000000D+00  0.0000000000000D+00
   186  1.8500000000000D+00  0.0000000000000D+00  0.0000000000000D+00
   187  1.8600000000000D+00  0.0000000000000D+00  0.0000000000000D+00
   188  1.8700000000000D+00  0.0000000000000D+00  0.0000000000000D+00
   189  1.8800000000000D+00  0.0000000000000D+00  0.0000000000000D+00
   190  1.8900000000000D+00  0.0000000000000D+00  0.0000000000000D+00
   191  1.9000000000000D+00  0.0000000000000D+00  0.0000000000000D+00
   192  1.9100000000000D+00  0.0000000000000D+00  0.0000000000000D+00
   193  1.9200000000000D+00  0.0000000000000D+00  0.0000000000000D+00
   194  1.9300000000000D+00  0.0000000000000D+00  0.0000000000000D+00
   195  1.9400000000000D+00  0.0000000000000D+00  0.0000000000000D+00
   196  1.9500000000000D+00  0.0000000000000D+00  0.0000000000000D+00
   197  1.9600000000000D+00  0.0000000000000D+00  0.0000000000000D+00
   198  1.9700000000000D+00  0.0000000000000D+00  0.0000000000000D+00
   199  1.9800000000000D+00  0.0000000000000D+00  0.0000000000000D+00
   200  1.9900000000000D+00  0.0000000000000D+00  0.0000000000000D+00
   201  2.0000000000000D+00  0.0000000000000D+00  0.0000000000000D+00
   202  2.0100000000000D+00  0.0000000000000D+00  0.0000000000000D+00
   203  2.0200000000000D+00  0.0000000000000D+00  0.0000000000000D+00
   204  2.0300000000000D+00  0.0000000000000D+00  0.0000000000000D+00
   205  2.0400000000000D+00  0.0000000000000D+00  0.0000000000000D+00
   206  2.0500000000000D+00  0.0000000000000D+00  0.0000000000000D+00
   207  2.0600000000000D+00  0.0000000000000D+00  0.0000000000000D+00
   208  2.0700000000000D+00  0.0000000000000D+00  0.0000000000000D+00
   209  2.0800000000000D+00  0.0000000000000D+00  0.0000000000000D+00
   210  2.0900000000000D+00  0.0000000000000D+00  0.0000000000000D+00
   211  2.1000000000000D+00  0.0000000000000D+00  0.0000000000000D+00
   212  2.1100000000000D+00  0.0000000000000D+00  0.0000000000000D+00
   213  2.1200000000000D+00  0.0000000000000D+00  0.0000000000000D+00
   214  2.1300000000000D+00  0.0000000000000D+00  0.0000000000000D+00
   215  2.1400000000000D+00  0.0000000000000D+00  0.0000000000000D+00
   216  2.1500000000000D+00  0.0000000000000D+00  0.0000000000000D+00
   217  2.1600000000000D+00  0.0000000000000D+00  0.0000000000000D+00
   218  2.1700000000000D+00  0.0000000000000D+00  0.0000000000000D+00
   219  2.1800000000000D+00  0.0000000000000D+00  0.0000000000000D+00
   220  2.1900000000000D+00  0.0000000000000D+00  0.0000000000000D+00
   221  2.2000000000000D+00  0.0000000000000D+00  0.0000000000000D+00
   222  2.2100000000000D+00  0.0000000000000D+00  0.0000000000000D+00
   223  2.2200000000000D+00  0.0000000000000D+00  0.0000000000000D+00
   224  2.2300000000000D+00  0.0000000000000D+00  0.0000000000000D+00
   225  2.2400000000000D+00  0.0000000000000D+00  0.0000000000000D+00
   226  2.2500000000000D+00  0.0000000000000D+00  0.0000000000000D+00
   227  2.2600000000000D+00  0.0000000000000D+00  0.0000000000000D+00
   228  2.2700000000000D+00  0.0000000000000D+00  0.0000000000000D+00
   229  2.2800000000000D+00  0.0000000000000D+00  0.0000000000000D+00
   230  2.2900000000000D+00  0.0000000000000D+00  0.0000000000000D+00
   231  2.3000000000000D+00  0.0000000000000D+00  0.0000000000000D+00
   232  2.3100000000000D+00  0.0000000000000D+00  0.0000000000000D+00
   233  2.3200000000000D+00  0.0000000000000D+00  0.0000000000000D+00
   234  2.3300000000000D+00  0.0000000000000D+00  0.0000000000000D+00
   235  2.3400000000000D+00  0.0000000000000D+00  0.0000000000000D+00
   236  2.3500000000000D+00  0.0000000000000D+00  0.0000000000000D+00
   237  2.3600000000000D+00  0.0000000000000D+00  0.0000000000000D+00
   238  2.3700000000000D+00  0.0000000000000D+00  0.0000000000000D+00
   239  2.3800000000000D+00  0.0000000000000D+00  0.0000000000000D+00
   240  2.3900000000000D+00  0.0000000000000D+00  0.0000000000000D+00
   241  2.4000000000000D+00  0.0000000000000D+00  0.0000000000000D+00
   242  2.4100000000000D+00  0.0000000000000D+00  0.0000000000000D+00
   243  2.4200000000000D+00  0.0000000000000D+00  0.0000000000000D+00
   244  2.4300000000000D+00  0.0000000000000D+00  0.0000000000000D+00
   245  2.4400000000000D+00  0.0000000000000D+00  0.0000000000000D+00
   246  2.4500000000000D+00  0.0000000000000D+00  0.0000000000000D+00
   247  2.4600000000000D+00  0.0000000000000D+00  0.0000000000000D+00
   248  2.4700000000000D+00  0.0000000000000D+00  0.0000000000000D+00
   249  2.4800000000000D+00  0.0000000000000D+00  0.0000000000000D+00
   250  2.4900000000000D+00  0.0000000000000D+00  0.0000000000000D+00
   251  2.5000000000000D+00  0.0000000000000D+00  0.0000000000000D+00
   252  2.5100000000000D+00  0.0000000000000D+00  0.0000000000000D+00
   253  2.5200000000000D+00  0.0000000000000D+00  0.0000000000000D+00
   254  2.5300000000000D+00  0.0000000000000D+00  0.0000000000000D+00
   255  2.5400000000000D+00  0.0000000000000D+00  0.0000000000000D+00
   256  2.5500000000000D+00  0.0000000000000D+00  0.0000000000000D+00
   257  2.5600000000000D+00  0.0000000000000D+00  0.0000000000000D+00
   258  2.5700000000000D+00  0.0000000000000D+00  0.0000000000000D+00
   259  2.5800000000000D+00  0.0000000000000D+00  0.0000000000000D+00
   260  2.5900000000000D+00  0.0000000000000D+00  0.0000000000000D+00
   261  2.6000000000000D+00  0.0000000000000D+00  0.0000000000000D+00
   262  2.6100000000000D+00  0.0000000000000D+00  0.0000000000000D+00
   263  2.6200000000000D+00  0.0000000000000D+00  0.0000000000000D+00
   264  2.6300000000000D+00  0.0000000000000D+00  0.0000000000000D+00
   265  2.6400000000000D+00  0.0000000000000D+00  0.0000000000000D+00
   266  2.6500000000000D+00  0.0000000000000D+00  0.0000000000000D+00
   267  2.6600000000000D+00  0.0000000000000D+00  0.0000000000000D+00
   268  2.6700000000000D+00  0.0000000000000D+00  0.0000000000000D+00
   269  2.6800000000000D+00  0.0000000000000D+00  0.0000000000000D+00
   270  2.6900000000000D+00  0.0000000000000D+00  0.0000000000000D+00
   271  2.7000000000000D+00  0.0000000000000D+00  0.0000000000000D+00
   272  2.7100000000000D+00  0.0000000000000D+00  0.0000000000000D+00
   273  2.7200000000000D+00  0.0000000000000D+00  0.0000000000000D+00
   274  2.7300000000000D+00  0.0000000000000D+00  0.0000000000000D+00
   275  2.7400000000000D+00  0.0000000000000D+00  0.0000000000000D+00
   276  2.7500000000000D+00  0.0000000000000D+00  0.0000000000000D+00
   277  2.7600000000000D+00  0.0000000000000D+00  0.0000000000000D+00
   278  2.7700000000000D+00  0.0000000000000D+00  0.0000000000000D+00
   279  2.7800000000000D+00  0.0000000000000D+00  0.0000000000000D+00
   280  2.7900000000000D+00  0.0000000000000D+00  0.0000000000000D+00
   281  2.8000000000000D+00  0.0000000000000D+00  0.0000000000000D+00
   282  2.8100000000000D+00  0.0000000000000D+00  0.0000000000000D+00
   283  2.8200000000000D+00  0.0000000000000D+00  0.0000000000000D+00
   284  2.8300000000000D+00  0.0000000000000D+00  0.0000000000000D+00
   285  2.8400000000000D+00  0.0000000000000D+00  0.0000000000000D+00
   286  2.8500000000000D+00  0.0000000000000D+00  0.0000000000000D+00
   287  2.8600000000000D+00  0.0000000000000D+00  0.0000000000000D+00
   288  2.8700000000000D+00  0.0000000000000D+00  0.0000000000000D+00
   289  2.8800000000000D+00  0.0000000000000D+00  0.0000000000000D+00
   290  2.8900000000000D+00  0.0000000000000D+00  0.0000000000000D+00
   291  2.9000000000000D+00  0.0000000000000D+00  0.0000000000000D+00
   292  2.9100000000000D+00  0.0000000000000D+00  0.0000000000000D+00
   293  2.9200000000000D+00  0.0000000000000D+00  0.0000000000000D+00
   294  2.9300000000000D+00  0.0000000000000D+00  0.0000000000000D+00
   295  2.9400000000000D+00  0.0000000000000D+00  0.0000000000000D+00
   296  2.9500000000000D+00  0.0000000000000D+00  0.0000000000000D+00
   297  2.9600000000000D+00  0.0000000000000D+00  0.0000000000000D+00
   298  2.9700000000000D+00  0.0000000000000D+00  0.0000000000000D+00
   299  2.9800000000000D+00  0.0000000000000D+00  0.0000000000000D+00
   300  2.9900000000000D+00  0.0000000000000D+00  0.0000000000000D+00
   301  3.0000000000000D+00  0.0000000000000D+00  0.0000000000000D+00
   302  3.0100000000000D+00  0.0000000000000D+00  0.0000000000000D+00
   303  3.0200000000000D+00  0.0000000000000D+00  0.0000000000000D+00
   304  3.0300000000000D+00  0.0000000000000D+00  0.0000000000000D+00
   305  3.0400000000000D+00  0.0000000000000D+00  0.0000000000000D+00
   306  3.0500000000000D+00  0.0000000000000D+00  0.0000000000000D+00
   307  3.0600000000000D+00  0.0000000000000D+00  0.0000000000000D+00
   308  3.0700000000000D+00  0.0000000000000D+00  0.0000000000000D+00
   309  3.0800000000000D+00  0.0000000000000D+00  0.0000000000000D+00
   310  3.0900000000000D+00  0.0000000000000D+00  0.0000000000000D+00
   311  3.1000000000000D+00  0.0000000000000D+00  0.0000000000000D+00
   312  3.1100000000000D+00  0.0000000000000D+00  0.0000000000000D+00
   313  3.1200000000000D+00  0.0000000000000D+00  0.0000000000000D+00
   314  3.1300000000000D+00  0.0000000000000D+00  0.0000000000000D+00
   315  3.1400000000000D+00  0.0000000000000D+00  0.0000000000000D+00
   316  3.1500000000000D+00  0.0000000000000D+00  0.0000000000000D+00
   317  3.1600000000000D+00  0.0000000000000D+00  0.0000000000000D+00
   318  3.1700000000000D+00  0.0000000000000D+00  0.0000000000000D+00
   319  3.1800000000000D+00  0.0000000000000D+00  0.0000000000000D+00
   320  3.1900000000000D+00  0.0000000000000D+00  0.0000000000000D+00
   321  3.2000000000000D+00  0.0000000000000D+00  0.0000000000000D+00
   322  3.2100000000000D+00  0.0000000000000D+00  0.0000000000000D+00
   323  3.2200000000000D+00  0.0000000000000D+00  0.0000000000000D+00
   324  3.2300000000000D+00  0.0000000000000D+00  0.0000000000000D+00
   325  3.2400000000000D+00  0.0000000000000D+00  0.0000000000000D+00
   326  3.2500000000000D+00  0.0000000000000D+00  0.0000000000000D+00
   327  3.2600000000000D+00  0.0000000000000D+00  0.0000000000000D+00
   328  3.2700000000000D+00  0.0000000000000D+00  0.0000000000000D+00
   329  3.2800000000000D+00  0.0000000000000D+00  0.0000000000000D+00
   330  3.2900000000000D+00  0.0000000000000D+00  0.0000000000000D+00
   331  3.3000000000000D+00  0.0000000000000D+00  0.0000000000000D+00
   332  3.3100000000000D+00  0.0000000000000D+00  0.0000000000000D+00
   333  3.3200000000000D+00  0.0000000000000D+00  0.0000000000000D+00
   334  3.3300000000000D+00  0.0000000000000D+00  0.0000000000000D+00
   335  3.3400000000000D+00  0.0000000000000D+00  0.0000000000000D+00
   336  3.3500000000000D+00  0.0000000000000D+00  0.0000000000000D+00
   337  3.3600000000000D+00  0.0000000000000D+00  0.0000000000000D+00
   338  3.3700000000000D+00  0.0000000000000D+00  0.0000000000000D+00
   339  3.3800000000000D+00  0.0000000000000D+00  0.0000000000000D+00
   340  3.3900000000000D+00  0.0000000000000D+00  0.0000000000000D+00
   341  3.4000000000000D+00  0.0000000000000D+00  0.0000000000000D+00
   342  3.4100000000000D+00  0.0000000000000D+00  0.0000000000000D+00
   343  3.4200000000000D+00  0.0000000000000D+00  0.0000000000000D+00
   344  3.4300000000000D+00  0.0000000000000D+00  0.0000000000000D+00
   345  3.4400000000000D+00  0.0000000000000D+00  0.0000000000000D+00
   346  3.4500000000000D+00  0.0000000000000D+00  0.0000000000000D+00
   347  3.4600000000000D+00  0.0000000000000D+00  0.0000000000000D+00
   348  3.4700000000000D+00  0.0000000000000D+00  0.0000000000000D+00
   349  3.4800000000000D+00  0.0000000000000D+00  0.0000000000000D+00
   350  3.4900000000000D+00  0.0000000000000D+00  0.0000000000000D+00
   351  3.5000000000000D+00  0.0000000000000D+00  0.0000000000000D+00
   352  3.5100000000000D+00  0.0000000000000D+00  0.0000000000000D+00
   353  3.5200000000000D+00  0.0000000000000D+00  0.0000000000000D+00
   354  3.5300000000000D+00  0.0000000000000D+00  0.0000000000000D+00
   355  3.5400000000000D+00  0.0000000000000D+00  0.0000000000000D+00
   356  3.5500000000000D+00  0.0000000000000D+00  0.0000000000000D+00
   357  3.5600000000000D+00  0.0000000000000D+00  0.0000000000000D+00
   358  3.5700000000000D+00  0.0000000000000D+00  0.0000000000000D+00
   359  3.5800000000000D+00  0.0000000000000D+00  0.0000000000000D+00
   360  3.5900000000000D+00  0.0000000000000D+00  0.0000000000000D+00
   361  3.6000000000000D+00  0.0000000000000D+00  0.0000000000000D+00
   362  3.6100000000000D+00  0.0000000000000D+00  0.0000000000000D+00
   363  3.6200000000000D+00  0.0000000000000D+00  0.0000000000000D+00
   364  3.6300000000000D+00  0.0000000000000D+00  0.0000000000000D+00
   365  3.6400000000000D+00  0.0000000000000D+00  0.0000000000000D+00
   366  3.6500000000000D+00  0.0000000000000D+00  0.0000000000000D+00
   367  3.6600000000000D+00  0.0000000000000D+00  0.0000000000000D+00
   368  3.6700000000000D+00  0.0000000000000D+00  0.0000000000000D+00
   369  3.6800000000000D+00  0.0000000000000D+00  0.0000000000000D+00
   370  3.6900000000000D+00  0.0000000000000D+00  0.0000000000000D+00
   371  3.7000000000000D+00  0.0000000000000D+00  0.0000000000000D+00
   372  3.7100000000000D+00  0.0000000000000D+00  0.0000000000000D+00
   373  3.7200000000000D+00  0.0000000000000D+00  0.0000000000000D+00
   374  3.7300000000000D+00  0.0000000000000D+00  0.0000000000000D+00
   375  3.7400000000000D+00  0.0000000000000D+00  0.0000000000000D+00
   376  3.7500000000000D+00  0.0000000000000D+00  0.0000000000000D+00
   377  3.7600000000000D+00  0.0000000000000D+00  0.0000000000000D+00
   378  3.7700000000000D+00  0.0000000000000D+00  0.0000000000000D+00
   379  3.7800000000000D+00  0.0000000000000D+00  0.0000000000000D+00
   380  3.7900000000000D+00  0.0000000000000D+00  0.0000000000000D+00
   381  3.8000000000000D+00  0.0000000000000D+00  0.0000000000000D+00
   382  3.8100000000000D+00  0.0000000000000D+00  0.0000000000000D+00
   383  3.8200000000000D+00  0.0000000000000D+00  0.0000000000000D+00
   384  3.8300000000000D+00  0.0000000000000D+00  0.0000000000000D+00
   385  3.8400000000000D+00  0.0000000000000D+00  0.0000000000000D+00
   386  3.8500000000000D+00  0.0000000000000D+00  0.0000000000000D+00
   387  3.8600000000000D+00  0.0000000000000D+00  0.0000000000000D+00
   388  3.8700000000000D+00  0.0000000000000D+00  0.0000000000000D+00
   389  3.8800000000000D+00  0.0000000000000D+00  0.0000000000000D+00
   390  3.8900000000000D+00  0.0000000000000D+00  0.0000000000000D+00
   391  3.9000000000000D+00  0.0000000000000D+00  0.0000000000000D+00
   392  3.9100000000000D+00  0.0000000000000D+00  0.0000000000000D+00
   393  3.9200000000000D+00  0.0000000000000D+00  0.0000000000000D+00
   394  3.9300000000000D+00  0.0000000000000D+00  0.0000000000000D+00
   395  3.9400000000000D+00  0.0000000000000D+00  0.0000000000000D+00
   396  3.9500000000000D+00  0.0000000000000D+00  0.0000000000000D+00
   397  3.9600000000000D+00  0.0000000000000D+00  0.0000000000000D+00
   398  3.9700000000000D+00  0.0000000000000D+00  0.0000000000000D+00
   399  3.9800000000000D+00  0.0000000000000D+00  0.0000000000000D+00
   400  3.9900000000000D+00  0.0000000000000D+00  0.0000000000000D+00
   401  4.0000000000000D+00  0.0000000000000D+00  0.0000000000000D+00
   402  4.0100000000000D+00  0.0000000000000D+00  0.0000000000000D+00
   403  4.0200000000000D+00  0.0000000000000D+00  0.0000000000000D+00
   404  4.0300000000000D+00  0.0000000000000D+00  0.0000000000000D+00
   405  4.0400000000000D+00  0.0000000000000D+00  0.0000000000000D+00
   406  4.0500000000000D+00  0.0000000000000D+00  0.0000000000000D+00
   407  4.0600000000000D+00  0.0000000000000D+00  0.0000000000000D+00
   408  4.0700000000000D+00  0.0000000000000D+00  0.0000000000000D+00
   409  4.0800000000000D+00  0.0000000000000D+00  0.0000000000000D+00
   410  4.0900000000000D+00  0.0000000000000D+00  0.0000000000000D+00
   411  4.1000000000000D+00  0.0000000000000D+00  0.0000000000000D+00
   412  4.1100000000000D+00  0.0000000000000D+00  0.0000000000000D+00
   413  4.1200000000000D+00  0.0000000000000D+00  0.0000000000000D+00
   414  4.1300000000000D+00  0.0000000000000D+00  0.0000000000000D+00
   415  4.1400000000000D+00  0.0000000000000D+00  0.0000000000000D+00
   416  4.1500000000000D+00  0.0000000000000D+00  0.0000000000000D+00
   417  4.1600000000000D+00  0.0000000000000D+00  0.0000000000000D+00
   418  4.1700000000000D+00  0.0000000000000D+00  0.0000000000000D+00
   419  4.1800000000000D+00  0.0000000000000D+00  0.0000000000000D+00
   420  4.1900000000000D+00  0.0000000000000D+00  0.0000000000000D+00
   421  4.2000000000000D+00  0.0000000000000D+00  0.0000000000000D+00
   422  4.2100000000000D+00  0.0000000000000D+00  0.0000000000000D+00