Sr    ONCVPSP-3.3.0  r_core=   1.51547   1.31335   1.51547
     38.0000     10.0000      220408    zatom,zion,pspd
     8       2   2     4   600     0    pspcod,pspxc,lmax,lloc,mmax,r2well
  5.99000000  0.00000000  0.00000000    rchrg fchrg qchrg
     2     2     2     0     0    nproj
     1     1           extension_switch
   0                         9.9880546084181D+00  9.1998042200874D-01
     1  0.0000000000000D+00  1.5227741290147D-10 -7.6194187070833D-10
     2  1.0000000000000D-02  4.0016835403527D-02 -1.3974563292978D-02
     3  2.0000000000000D-02  8.0028361922801D-02 -2.7998859423106D-02
     4  3.0000000000000D-02  1.2002895259861D-01 -4.2121436716723D-02
     5  4.0000000000000D-02  1.6001234789516D-01 -5.6388490063888D-02
     6  5.0000000000000D-02  1.9997134830599D-01 -7.0842722967057D-02
     7  6.0000000000000D-02  2.3989751752360D-01 -8.5522255562065D-02
     8  7.0000000000000D-02  2.7978089951336D-01 -1.0045959302972D-01
     9  8.0000000000000D-02  3.1960975267981D-01 -1.1568066805440D-01
    10  9.0000000000000D-02  3.5937030412678D-01 -1.3120397005144D-01
    11  1.0000000000000D-01  3.9904652679254D-01 -1.4703977278996D-01
    12  1.1000000000000D-01  4.3861994199221D-01 -1.6318947079460D-01
    13  1.2000000000000D-01  4.7806944962200D-01 -1.7964503353559D-01
    14  1.3000000000000D-01  5.1737118797944D-01 -1.9638858492692D-01
    15  1.4000000000000D-01  5.5649842483179D-01 -2.1339211406758D-01
    16  1.5000000000000D-01  5.9542148102668D-01 -2.3061732149912D-01
    17  1.6000000000000D-01  6.3410768758727D-01 -2.4801560353636D-01
    18  1.7000000000000D-01  6.7252137687419D-01 -2.6552817547735D-01
    19  1.8000000000000D-01  7.1062390803089D-01 -2.8308633273710D-01
    20  1.9000000000000D-01  7.4837372656338D-01 -3.0061184719747D-01
    21  2.0000000000000D-01  7.8572645754296D-01 -3.1801749434782D-01
    22  2.1000000000000D-01  8.2263503156585D-01 -3.3520770512655D-01
    23  2.2000000000000D-01  8.5904984226070D-01 -3.5207933478608D-01
    24  2.3000000000000D-01  8.9491893380783D-01 -3.6852253961218D-01
    25  2.4000000000000D-01  9.3018821662600D-01 -3.8442175095292D-01
    26  2.5000000000000D-01  9.6480170909761D-01 -3.9965673476960D-01
    27  2.6000000000000D-01  9.9870180294418D-01 -4.1410372382963D-01
    28  2.7000000000000D-01  1.0318295496339D+00 -4.2763660873238D-01
    29  2.8000000000000D-01  1.0641249650043D+00 -4.4012817320683D-01
    30  2.9000000000000D-01  1.0955273491192D+00 -4.5145135855439D-01
    31  3.0000000000000D-01  1.1259756182470D+00 -4.6148054173860D-01
    32  3.1000000000000D-01  1.1554086457587D+00 -4.7009281145284D-01
    33  3.2000000000000D-01  1.1837656086838D+00 -4.7716922652790D-01
    34  3.3000000000000D-01  1.2109863366492D+00 -4.8259604127609D-01
    35  3.4000000000000D-01  1.2370116599445D+00 -4.8626588280328D-01
    36  3.5000000000000D-01  1.2617837535152D+00 -4.8807886595106D-01
    37  3.6000000000000D-01  1.2852464737811D+00 -4.8794363234960D-01
    38  3.7000000000000D-01  1.3073456853041D+00 -4.8577830105856D-01
    39  3.8000000000000D-01  1.3280295744944D+00 -4.8151131943588D-01
    40  3.9000000000000D-01  1.3472489477359D+00 -4.7508220418690D-01
    41  4.0000000000000D-01  1.3649575115331D+00 -4.6644216399428D-01
    42  4.1000000000000D-01  1.3811121325266D+00 -4.5555459669122D-01
    43  4.2000000000000D-01  1.3956730754970D+00 -4.4239545559938D-01
    44  4.3000000000000D-01  1.4086042177552D+00 -4.2695348138347D-01
    45  4.4000000000000D-01  1.4198732386271D+00 -4.0923029755779D-01
    46  4.5000000000000D-01  1.4294517830411D+00 -3.8924036958785D-01
    47  4.6000000000000D-01  1.4373155985535D+00 -3.6701082934308D-01
    48  4.7000000000000D-01  1.4434446454561D+00 -3.4258116844620D-01
    49  4.8000000000000D-01  1.4478231799339D+00 -3.1600280580893D-01
    50  4.9000000000000D-01  1.4504398105467D+00 -2.8733853631676D-01
    51  5.0000000000000D-01  1.4512875286060D+00 -2.5666186920666D-01
    52  5.1000000000000D-01  1.4503637133074D+00 -2.2405626614559D-01
    53  5.2000000000000D-01  1.4476701127401D+00 -1.8961429034612D-01
    54  5.3000000000000D-01  1.4432128021406D+00 -1.5343667922749D-01
    55  5.4000000000000D-01  1.4370021209772D+00 -1.1563135413028D-01
    56  5.5000000000000D-01  1.4290525906408D+00 -7.6312381404733D-02
    57  5.6000000000000D-01  1.4193828146802D+00 -3.5598899802885D-02
    58  5.7000000000000D-01  1.4080153636443D+00  6.3859704948949D-03
    59  5.8000000000000D-01  1.3949766466926D+00  4.9516221705199D-02
    60  5.9000000000000D-01  1.3802967721866D+00  9.3664039646593D-02
    61  6.0000000000000D-01  1.3640093995062D+00  1.3870085711325D-01
    62  6.1000000000000D-01  1.3461515843137D+00  1.8449836469425D-01
    63  6.2000000000000D-01  1.3267636194452D+00  2.3092946501419D-01
    64  6.3000000000000D-01  1.3058888735236D+00  2.7786915728412D-01
    65  6.4000000000000D-01  1.2835736292717D+00  3.2519534016076D-01
    66  6.5000000000000D-01  1.2598669233574D+00  3.7278952220061D-01
    67  6.6000000000000D-01  1.2348203894256D+00  4.2053743066185D-01
    68  6.7000000000000D-01  1.2084881057713D+00  4.6832951101263D-01
    69  6.8000000000000D-01  1.1809264488838D+00  5.1606131123550D-01
    70  6.9000000000000D-01  1.1521939538481D+00  5.6363374686435D-01
    71  7.0000000000000D-01  1.1223511823315D+00  6.1095324460073D-01
    72  7.1000000000000D-01  1.0914605986155D+00  6.5793176432697D-01
    73  7.2000000000000D-01  1.0595864538560D+00  7.0448670131885D-01
    74  7.3000000000000D-01  1.0267946784797D+00  7.5054067245453D-01
    75  7.4000000000000D-01  9.9315278234709D-01  7.9602119216037D-01
    76  7.5000000000000D-01  9.5872976204867D-01  8.4086024572447D-01
    77  7.6000000000000D-01  9.2359601444276D-01  8.8499376940504D-01
    78  7.7000000000000D-01  8.8782325530655D-01  9.2836104843741D-01
    79  7.8000000000000D-01  8.5148444175303D-01  9.7090404557163D-01
    80  7.9000000000000D-01  8.1465369687259D-01  1.0125666741395D+00
    81  8.0000000000000D-01  7.7740623489362D-01  1.0532940308122D+00
    82  8.1000000000000D-01  7.3981828502272D-01  1.0930316041661D+00
    83  8.2000000000000D-01  7.0196701202606D-01  1.1317244758992D+00
    84  8.3000000000000D-01  6.6393043155190D-01  1.1693165320171D+00
    85  8.4000000000000D-01  6.2578731817113D-01  1.2057497015276D+00
    86  8.5000000000000D-01  5.8761710412983D-01  1.2409632401424D+00
    87  8.6000000000000D-01  5.4949976686658D-01  1.2748930761670D+00
    88  8.7000000000000D-01  5.1151570344628D-01  1.3074712351772D+00
    89  8.8000000000000D-01  4.7374559020258D-01  1.3386253592312D+00
    90  8.9000000000000D-01  4.3627022606102D-01  1.3682783352527D+00
    91  9.0000000000000D-01  3.9917035823250D-01  1.3963480458597D+00
    92  9.1000000000000D-01  3.6252648922014D-01  1.4227472543195D+00
    93  9.2000000000000D-01  3.2641866436920D-01  1.4473836334932D+00
    94  9.3000000000000D-01  2.9092623950449D-01  1.4701599466243D+00
    95  9.4000000000000D-01  2.5612762854145D-01  1.4909743856467D+00
    96  9.5000000000000D-01  2.2210003131918D-01  1.5097210703495D+00
    97  9.6000000000000D-01  1.8891914228229D-01  1.5262907093007D+00
    98  9.7000000000000D-01  1.5665884102413D-01  1.5405714209216D+00
    99  9.8000000000000D-01  1.2539086610633D-01  1.5524497104874D+00
   100  9.9000000000000D-01  9.5184473958234D-02  1.5618115962700D+00
   101  1.0000000000000D+00  6.6106085052749D-02  1.5685438754547D+00
   102  1.0100000000000D+00  3.8218919931874D-02  1.5725355179435D+00
   103  1.0200000000000D+00  1.1582628016447D-02  1.5736791737366D+00
   104  1.0300000000000D+00 -1.3747087522373D-02  1.5718727772437D+00
   105  1.0400000000000D+00 -3.7718845259727D-02  1.5670212298559D+00
   106  1.0500000000000D+00 -6.0285957509658D-02  1.5590381399849D+00
   107  1.0600000000000D+00 -8.1406794723587D-02  1.5478475981821D+00
   108  1.0700000000000D+00 -1.0104513800101D-01  1.5333859634225D+00
   109  1.0800000000000D+00 -1.1917051527149D-01  1.5156036354272D+00
   110  1.0900000000000D+00 -1.3575851661254D-01  1.4944667870538D+00
   111  1.1000000000000D+00 -1.5079108411085D-01  1.4699590300793D+00
   112  1.1100000000000D+00 -1.6425677169160D-01  1.4420829875077D+00
   113  1.1200000000000D+00 -1.7615097040750D-01  1.4108617456071D+00
   114  1.1300000000000D+00 -1.8647609479947D-01  1.3763401592871D+00
   115  1.1400000000000D+00 -1.9524172609676D-01  1.3385859850581D+00
   116  1.1500000000000D+00 -2.0246470829011D-01  1.2976908170606D+00
   117  1.1600000000000D+00 -2.0816919339892D-01  1.2537708030843D+00
   118  1.1700000000000D+00 -2.1238663256354D-01  1.2069671190718D+00
   119  1.1800000000000D+00 -2.1515570997444D-01  1.1574461825787D+00
   120  1.1900000000000D+00 -2.1652221712863D-01  1.1053995882228D+00
   121  1.2000000000000D+00 -2.1653886542226D-01  1.0510437509832D+00
   122  1.2100000000000D+00 -2.1526503535592D-01  9.9461924464822D-01
   123  1.2200000000000D+00 -2.1276646146601D-01  9.3638982732834D-01
   124  1.2300000000000D+00 -2.0911485255131D-01  8.7664114852024D-01
   125  1.2400000000000D+00 -2.0438744721017D-01  8.1567913468967D-01
   126  1.2500000000000D+00 -1.9866650540623D-01  7.5382805429117D-01
   127  1.2600000000000D+00 -1.9203873749318D-01  6.9142826720048D-01
   128  1.2700000000000D+00 -1.8459467199432D-01  6.2883366189265D-01
   129  1.2800000000000D+00 -1.7642796733197D-01  5.6640881197052D-01
   130  1.2900000000000D+00 -1.6763465759600D-01  5.0452577207065D-01
   131  1.3000000000000D+00 -1.5831239959247D-01  4.4356098461198D-01
   132  1.3100000000000D+00 -1.4855952873169D-01  3.8389090990119D-01
   133  1.3200000000000D+00 -1.3847423821387D-01  3.2588861501944D-01
   134  1.3300000000000D+00 -1.2815430550449D-01  2.6992468476327D-01
   135  1.3400000000000D+00 -1.1769690541078D-01  2.1636808393072D-01
   136  1.3500000000000D+00 -1.0719851770235D-01  1.6558729676944D-01
   137  1.3600000000000D+00 -9.6754200335772D-02  1.1794642899006D-01
   138  1.3700000000000D+00 -8.6456965558004D-02  7.3802049188183D-02
   139  1.3800000000000D+00 -7.6397176647173D-02  3.3500227942679D-02
   140  1.3900000000000D+00 -6.6661935387619D-02 -2.6265627559872D-03
   141  1.4000000000000D+00 -5.7334433496024D-02 -3.4262789311658D-02
   142  1.4100000000000D+00 -4.8493613620444D-02 -6.1111344293473D-02
   143  1.4200000000000D+00 -4.0213649029565D-02 -8.2896155655989D-02
   144  1.4300000000000D+00 -3.2560685877706D-02 -9.9381609200184D-02
   145  1.4400000000000D+00 -2.5598477885966D-02 -1.1033755443826D-01
   146  1.4500000000000D+00 -1.9392463682132D-02 -1.1551383633791D-01
   147  1.4600000000000D+00 -1.3991313451246D-02 -1.1475380867797D-01
   148  1.4700000000000D+00 -9.4295707757744D-03 -1.0783664299558D-01
   149  1.4800000000000D+00 -5.7300438714024D-03 -9.5211909718353D-02
   150  1.4900000000000D+00 -2.9136979645302D-03 -7.7496803117222D-02
   151  1.5000000000000D+00 -1.0738104573753D-03 -4.9153270859309D-02
   152  1.5100000000000D+00 -1.6702621746269D-04 -1.4233078779349D-02
   153  1.5200000000000D+00  9.0220357914624D-05  4.4820586836481D-03
   154  1.5300000000000D+00  3.6886850302975D-05  2.5273478587612D-03
   155  1.5400000000000D+00 -2.4842238041563D-05 -1.1922546195755D-03
   156  1.5500000000000D+00 -7.7755821547930D-06 -3.9087041468209D-04
   157  1.5600000000000D+00  4.8918049638325D-06  1.6082012799333D-04
   158  1.5700000000000D+00  5.3005319214886D-07  1.7598107635870D-05
   159  1.5800000000000D+00 -9.1680215227106D-08  1.6312000355982D-07
   160  1.5900000000000D+00  0.0000000000000D+00  0.0000000000000D+00
   161  1.6000000000000D+00  0.0000000000000D+00  0.0000000000000D+00
   162  1.6100000000000D+00  0.0000000000000D+00  0.0000000000000D+00
   163  1.6200000000000D+00  0.0000000000000D+00  0.0000000000000D+00
   164  1.6300000000000D+00  0.0000000000000D+00  0.0000000000000D+00
   165  1.6400000000000D+00  0.0000000000000D+00  0.0000000000000D+00
   166  1.6500000000000D+00  0.0000000000000D+00  0.0000000000000D+00
   167  1.6600000000000D+00  0.0000000000000D+00  0.0000000000000D+00
   168  1.6700000000000D+00  0.0000000000000D+00  0.0000000000000D+00
   169  1.6800000000000D+00  0.0000000000000D+00  0.0000000000000D+00
   170  1.6900000000000D+00  0.0000000000000D+00  0.0000000000000D+00
   171  1.7000000000000D+00  0.0000000000000D+00  0.0000000000000D+00
   172  1.7100000000000D+00  0.0000000000000D+00  0.0000000000000D+00
   173  1.7200000000000D+00  0.0000000000000D+00  0.0000000000000D+00
   174  1.7300000000000D+00  0.0000000000000D+00  0.0000000000000D+00
   175  1.7400000000000D+00  0.0000000000000D+00  0.0000000000000D+00
   176  1.7500000000000D+00  0.0000000000000D+00  0.0000000000000D+00
   177  1.7600000000000D+00  0.0000000000000D+00  0.0000000000000D+00
   178  1.7700000000000D+00  0.0000000000000D+00  0.0000000000000D+00
   179  1.7800000000000D+00  0.0000000000000D+00  0.0000000000000D+00
   180  1.7900000000000D+00  0.0000000000000D+00  0.0000000000000D+00
   181  1.8000000000000D+00  0.0000000000000D+00  0.0000000000000D+00
   182  1.8100000000000D+00  0.0000000000000D+00  0.0000000000000D+00
   183  1.8200000000000D+00  0.0000000000000D+00  0.0000000000000D+00
   184  1.8300000000000D+00  0.0000000000000D+00  0.0000000000000D+00
   185  1.8400000000000D+00  0.0000000000000D+00  0.0000000000000D+00
   186  1.8500000000000D+00  0.0000000000000D+00  0.0000000000000D+00
   187  1.8600000000000D+00  0.0000000000000D+00  0.0000000000000D+00
   188  1.8700000000000D+00  0.0000000000000D+00  0.0000000000000D+00
   189  1.8800000000000D+00  0.0000000000000D+00  0.0000000000000D+00
   190  1.8900000000000D+00  0.0000000000000D+00  0.0000000000000D+00
   191  1.9000000000000D+00  0.0000000000000D+00  0.0000000000000D+00
   192  1.9100000000000D+00  0.0000000000000D+00  0.0000000000000D+00
   193  1.9200000000000D+00  0.0000000000000D+00  0.0000000000000D+00
   194  1.9300000000000D+00  0.0000000000000D+00  0.0000000000000D+00
   195  1.9400000000000D+00  0.0000000000000D+00  0.0000000000000D+00
   196  1.9500000000000D+00  0.0000000000000D+00  0.0000000000000D+00
   197  1.9600000000000D+00  0.0000000000000D+00  0.0000000000000D+00
   198  1.9700000000000D+00  0.0000000000000D+00  0.0000000000000D+00
   199  1.9800000000000D+00  0.0000000000000D+00  0.0000000000000D+00
   200  1.9900000000000D+00  0.0000000000000D+00  0.0000000000000D+00
   201  2.0000000000000D+00  0.0000000000000D+00  0.0000000000000D+00
   202  2.0100000000000D+00  0.0000000000000D+00  0.0000000000000D+00
   203  2.0200000000000D+00  0.0000000000000D+00  0.0000000000000D+00
   204  2.0300000000000D+00  0.0000000000000D+00  0.0000000000000D+00
   205  2.0400000000000D+00  0.0000000000000D+00  0.0000000000000D+00
   206  2.0500000000000D+00  0.0000000000000D+00  0.0000000000000D+00
   207  2.0600000000000D+00  0.0000000000000D+00  0.0000000000000D+00
   208  2.0700000000000D+00  0.0000000000000D+00  0.0000000000000D+00
   209  2.0800000000000D+00  0.0000000000000D+00  0.0000000000000D+00
   210  2.0900000000000D+00  0.0000000000000D+00  0.0000000000000D+00
   211  2.1000000000000D+00  0.0000000000000D+00  0.0000000000000D+00
   212  2.1100000000000D+00  0.0000000000000D+00  0.0000000000000D+00
   213  2.1200000000000D+00  0.0000000000000D+00  0.0000000000000D+00
   214  2.1300000000000D+00  0.0000000000000D+00  0.0000000000000D+00
   215  2.1400000000000D+00  0.0000000000000D+00  0.0000000000000D+00
   216  2.1500000000000D+00  0.0000000000000D+00  0.0000000000000D+00
   217  2.1600000000000D+00  0.0000000000000D+00  0.0000000000000D+00
   218  2.1700000000000D+00  0.0000000000000D+00  0.0000000000000D+00
   219  2.1800000000000D+00  0.0000000000000D+00  0.0000000000000D+00
   220  2.1900000000000D+00  0.0000000000000D+00  0.0000000000000D+00
   221  2.2000000000000D+00  0.0000000000000D+00  0.0000000000000D+00
   222  2.2100000000000D+00  0.0000000000000D+00  0.0000000000000D+00
   223  2.2200000000000D+00  0.0000000000000D+00  0.0000000000000D+00
   224  2.2300000000000D+00  0.0000000000000D+00  0.0000000000000D+00
   225  2.2400000000000D+00  0.0000000000000D+00  0.0000000000000D+00
   226  2.2500000000000D+00  0.0000000000000D+00  0.0000000000000D+00
   227  2.2600000000000D+00  0.0000000000000D+00  0.0000000000000D+00
   228  2.2700000000000D+00  0.0000000000000D+00  0.0000000000000D+00
   229  2.2800000000000D+00  0.0000000000000D+00  0.0000000000000D+00
   230  2.2900000000000D+00  0.0000000000000D+00  0.0000000000000D+00
   231  2.3000000000000D+00  0.0000000000000D+00  0.0000000000000D+00
   232  2.3100000000000D+00  0.0000000000000D+00  0.0000000000000D+00
   233  2.3200000000000D+00  0.0000000000000D+00  0.0000000000000D+00
   234  2.3300000000000D+00  0.0000000000000D+00  0.0000000000000D+00
   235  2.3400000000000D+00  0.0000000000000D+00  0.0000000000000D+00
   236  2.3500000000000D+00  0.0000000000000D+00  0.0000000000000D+00
   237  2.3600000000000D+00  0.0000000000000D+00  0.0000000000000D+00
   238  2.3700000000000D+00  0.0000000000000D+00  0.0000000000000D+00
   239  2.3800000000000D+00  0.0000000000000D+00  0.0000000000000D+00
   240  2.3900000000000D+00  0.0000000000000D+00  0.0000000000000D+00
   241  2.4000000000000D+00  0.0000000000000D+00  0.0000000000000D+00
   242  2.4100000000000D+00  0.0000000000000D+00  0.0000000000000D+00
   243  2.4200000000000D+00  0.0000000000000D+00  0.0000000000000D+00
   244  2.4300000000000D+00  0.0000000000000D+00  0.0000000000000D+00
   245  2.4400000000000D+00  0.0000000000000D+00  0.0000000000000D+00
   246  2.4500000000000D+00  0.0000000000000D+00  0.0000000000000D+00
   247  2.4600000000000D+00  0.0000000000000D+00  0.0000000000000D+00
   248  2.4700000000000D+00  0.0000000000000D+00  0.0000000000000D+00
   249  2.4800000000000D+00  0.0000000000000D+00  0.0000000000000D+00
   250  2.4900000000000D+00  0.0000000000000D+00  0.0000000000000D+00
   251  2.5000000000000D+00  0.0000000000000D+00  0.0000000000000D+00
   252  2.5100000000000D+00  0.0000000000000D+00  0.0000000000000D+00
   253  2.5200000000000D+00  0.0000000000000D+00  0.0000000000000D+00
   254  2.5300000000000D+00  0.0000000000000D+00  0.0000000000000D+00
   255  2.5400000000000D+00  0.0000000000000D+00  0.0000000000000D+00
   256  2.5500000000000D+00  0.0000000000000D+00  0.0000000000000D+00
   257  2.5600000000000D+00  0.0000000000000D+00  0.0000000000000D+00
   258  2.5700000000000D+00  0.0000000000000D+00  0.0000000000000D+00
   259  2.5800000000000D+00  0.0000000000000D+00  0.0000000000000D+00
   260  2.5900000000000D+00  0.0000000000000D+00  0.0000000000000D+00
   261  2.6000000000000D+00  0.0000000000000D+00  0.0000000000000D+00
   262  2.6100000000000D+00  0.0000000000000D+00  0.0000000000000D+00
   263  2.6200000000000D+00  0.0000000000000D+00  0.0000000000000D+00
   264  2.6300000000000D+00  0.0000000000000D+00  0.0000000000000D+00
   265  2.6400000000000D+00  0.0000000000000D+00  0.0000000000000D+00
   266  2.6500000000000D+00  0.0000000000000D+00  0.0000000000000D+00
   267  2.6600000000000D+00  0.0000000000000D+00  0.0000000000000D+00
   268  2.6700000000000D+00  0.0000000000000D+00  0.0000000000000D+00
   269  2.6800000000000D+00  0.0000000000000D+00  0.0000000000000D+00
   270  2.6900000000000D+00  0.0000000000000D+00  0.0000000000000D+00
   271  2.7000000000000D+00  0.0000000000000D+00  0.0000000000000D+00
   272  2.7100000000000D+00  0.0000000000000D+00  0.0000000000000D+00
   273  2.7200000000000D+00  0.0000000000000D+00  0.0000000000000D+00
   274  2.7300000000000D+00  0.0000000000000D+00  0.0000000000000D+00
   275  2.7400000000000D+00  0.0000000000000D+00  0.0000000000000D+00
   276  2.7500000000000D+00  0.0000000000000D+00  0.0000000000000D+00
   277  2.7600000000000D+00  0.0000000000000D+00  0.0000000000000D+00
   278  2.7700000000000D+00  0.0000000000000D+00  0.0000000000000D+00
   279  2.7800000000000D+00  0.0000000000000D+00  0.0000000000000D+00
   280  2.7900000000000D+00  0.0000000000000D+00  0.0000000000000D+00
   281  2.8000000000000D+00  0.0000000000000D+00  0.0000000000000D+00
   282  2.8100000000000D+00  0.0000000000000D+00  0.0000000000000D+00
   283  2.8200000000000D+00  0.0000000000000D+00  0.0000000000000D+00
   284  2.8300000000000D+00  0.0000000000000D+00  0.0000000000000D+00
   285  2.8400000000000D+00  0.0000000000000D+00  0.0000000000000D+00
   286  2.8500000000000D+00  0.0000000000000D+00  0.0000000000000D+00
   287  2.8600000000000D+00  0.0000000000000D+00  0.0000000000000D+00
   288  2.8700000000000D+00  0.0000000000000D+00  0.0000000000000D+00
   289  2.8800000000000D+00  0.0000000000000D+00  0.0000000000000D+00
   290  2.8900000000000D+00  0.0000000000000D+00  0.0000000000000D+00
   291  2.9000000000000D+00  0.0000000000000D+00  0.0000000000000D+00
   292  2.9100000000000D+00  0.0000000000000D+00  0.0000000000000D+00
   293  2.9200000000000D+00  0.0000000000000D+00  0.0000000000000D+00
   294  2.9300000000000D+00  0.0000000000000D+00  0.0000000000000D+00
   295  2.9400000000000D+00  0.0000000000000D+00  0.0000000000000D+00
   296  2.9500000000000D+00  0.0000000000000D+00  0.0000000000000D+00
   297  2.9600000000000D+00  0.0000000000000D+00  0.0000000000000D+00
   298  2.9700000000000D+00  0.0000000000000D+00  0.0000000000000D+00
   299  2.9800000000000D+00  0.0000000000000D+00  0.0000000000000D+00
   300  2.9900000000000D+00  0.0000000000000D+00  0.0000000000000D+00
   301  3.0000000000000D+00  0.0000000000000D+00  0.0000000000000D+00
   302  3.0100000000000D+00  0.0000000000000D+00  0.0000000000000D+00
   303  3.0200000000000D+00  0.0000000000000D+00  0.0000000000000D+00
   304  3.0300000000000D+00  0.0000000000000D+00  0.0000000000000D+00
   305  3.0400000000000D+00  0.0000000000000D+00  0.0000000000000D+00
   306  3.0500000000000D+00  0.0000000000000D+00  0.0000000000000D+00
   307  3.0600000000000D+00  0.0000000000000D+00  0.0000000000000D+00
   308  3.0700000000000D+00  0.0000000000000D+00  0.0000000000000D+00
   309  3.0800000000000D+00  0.0000000000000D+00  0.0000000000000D+00
   310  3.0900000000000D+00  0.0000000000000D+00  0.0000000000000D+00
   311  3.1000000000000D+00  0.0000000000000D+00  0.0000000000000D+00
   312  3.1100000000000D+00  0.0000000000000D+00  0.0000000000000D+00
   313  3.1200000000000D+00  0.0000000000000D+00  0.0000000000000D+00
   314  3.1300000000000D+00  0.0000000000000D+00  0.0000000000000D+00
   315  3.1400000000000D+00  0.0000000000000D+00  0.0000000000000D+00
   316  3.1500000000000D+00  0.0000000000000D+00  0.0000000000000D+00
   317  3.1600000000000D+00  0.0000000000000D+00  0.0000000000000D+00
   318  3.1700000000000D+00  0.0000000000000D+00  0.0000000000000D+00
   319  3.1800000000000D+00  0.0000000000000D+00  0.0000000000000D+00
   320  3.1900000000000D+00  0.0000000000000D+00  0.0000000000000D+00
   321  3.2000000000000D+00  0.0000000000000D+00  0.0000000000000D+00
   322  3.2100000000000D+00  0.0000000000000D+00  0.0000000000000D+00
   323  3.2200000000000D+00  0.0000000000000D+00  0.0000000000000D+00
   324  3.2300000000000D+00  0.0000000000000D+00  0.0000000000000D+00
   325  3.2400000000000D+00  0.0000000000000D+00  0.0000000000000D+00
   326  3.2500000000000D+00  0.0000000000000D+00  0.0000000000000D+00
   327  3.2600000000000D+00  0.0000000000000D+00  0.0000000000000D+00
   328  3.2700000000000D+00  0.0000000000000D+00  0.0000000000000D+00
   329  3.2800000000000D+00  0.0000000000000D+00  0.0000000000000D+00
   330  3.2900000000000D+00  0.0000000000000D+00  0.0000000000000D+00
   331  3.3000000000000D+00  0.0000000000000D+00  0.0000000000000D+00
   332  3.3100000000000D+00  0.0000000000000D+00  0.0000000000000D+00
   333  3.3200000000000D+00  0.0000000000000D+00  0.0000000000000D+00
   334  3.3300000000000D+00  0.0000000000000D+00  0.0000000000000D+00
   335  3.3400000000000D+00  0.0000000000000D+00  0.0000000000000D+00
   336  3.3500000000000D+00  0.0000000000000D+00  0.0000000000000D+00
   337  3.3600000000000D+00  0.0000000000000D+00  0.0000000000000D+00
   338  3.3700000000000D+00  0.0000000000000D+00  0.0000000000000D+00
   339  3.3800000000000D+00  0.0000000000000D+00  0.0000000000000D+00
   340  3.3900000000000D+00  0.0000000000000D+00  0.0000000000000D+00
   341  3.4000000000000D+00  0.0000000000000D+00  0.0000000000000D+00
   342  3.4100000000000D+00  0.0000000000000D+00  0.0000000000000D+00
   343  3.4200000000000D+00  0.0000000000000D+00  0.0000000000000D+00
   344  3.4300000000000D+00  0.0000000000000D+00  0.0000000000000D+00
   345  3.4400000000000D+00  0.0000000000000D+00  0.0000000000000D+00
   346  3.4500000000000D+00  0.0000000000000D+00  0.0000000000000D+00
   347  3.4600000000000D+00  0.0000000000000D+00  0.0000000000000D+00
   348  3.4700000000000D+00  0.0000000000000D+00  0.0000000000000D+00
   349  3.4800000000000D+00  0.0000000000000D+00  0.0000000000000D+00
   350  3.4900000000000D+00  0.0000000000000D+00  0.0000000000000D+00
   351  3.5000000000000D+00  0.0000000000000D+00  0.0000000000000D+00
   352  3.5100000000000D+00  0.0000000000000D+00  0.0000000000000D+00
   353  3.5200000000000D+00  0.0000000000000D+00  0.0000000000000D+00
   354  3.5300000000000D+00  0.0000000000000D+00  0.0000000000000D+00
   355  3.5400000000000D+00  0.0000000000000D+00  0.0000000000000D+00
   356  3.5500000000000D+00  0.0000000000000D+00  0.0000000000000D+00
   357  3.5600000000000D+00  0.0000000000000D+00  0.0000000000000D+00
   358  3.5700000000000D+00  0.0000000000000D+00  0.0000000000000D+00
   359  3.5800000000000D+00  0.0000000000000D+00  0.0000000000000D+00
   360  3.5900000000000D+00  0.0000000000000D+00  0.0000000000000D+00
   361  3.6000000000000D+00  0.0000000000000D+00  0.0000000000000D+00
   362  3.6100000000000D+00  0.0000000000000D+00  0.0000000000000D+00
   363  3.6200000000000D+00  0.0000000000000D+00  0.0000000000000D+00
   364  3.6300000000000D+00  0.0000000000000D+00  0.0000000000000D+00
   365  3.6400000000000D+00  0.0000000000000D+00  0.0000000000000D+00
   366  3.6500000000000D+00  0.0000000000000D+00  0.0000000000000D+00
   367  3.6600000000000D+00  0.0000000000000D+00  0.0000000000000D+00
   368  3.6700000000000D+00  0.0000000000000D+00  0.0000000000000D+00
   369  3.6800000000000D+00  0.0000000000000D+00  0.0000000000000D+00
   370  3.6900000000000D+00  0.0000000000000D+00  0.0000000000000D+00
   371  3.7000000000000D+00  0.0000000000000D+00  0.0000000000000D+00
   372  3.7100000000000D+00  0.0000000000000D+00  0.0000000000000D+00
   373  3.7200000000000D+00  0.0000000000000D+00  0.0000000000000D+00
   374  3.7300000000000D+00  0.0000000000000D+00  0.0000000000000D+00
   375  3.7400000000000D+00  0.0000000000000D+00  0.0000000000000D+00
   376  3.7500000000000D+00  0.0000000000000D+00  0.0000000000000D+00
   377  3.7600000000000D+00  0.0000000000000D+00  0.0000000000000D+00
   378  3.7700000000000D+00  0.0000000000000D+00  0.0000000000000D+00
   379  3.7800000000000D+00  0.0000000000000D+00  0.0000000000000D+00
   380  3.7900000000000D+00  0.0000000000000D+00  0.0000000000000D+00
   381  3.8000000000000D+00  0.0000000000000D+00  0.0000000000000D+00
   382  3.8100000000000D+00  0.0000000000000D+00  0.0000000000000D+00
   383  3.8200000000000D+00  0.0000000000000D+00  0.0000000000000D+00
   384  3.8300000000000D+00  0.0000000000000D+00  0.0000000000000D+00
   385  3.8400000000000D+00  0.0000000000000D+00  0.0000000000000D+00
   386  3.8500000000000D+00  0.0000000000000D+00  0.0000000000000D+00
   387  3.8600000000000D+00  0.0000000000000D+00  0.0000000000000D+00
   388  3.8700000000000D+00  0.0000000000000D+00  0.0000000000000D+00
   389  3.8800000000000D+00  0.0000000000000D+00  0.0000000000000D+00
   390  3.8900000000000D+00  0.0000000000000D+00  0.0000000000000D+00
   391  3.9000000000000D+00  0.0000000000000D+00  0.0000000000000D+00
   392  3.9100000000000D+00  0.0000000000000D+00  0.0000000000000D+00
   393  3.9200000000000D+00  0.0000000000000D+00  0.0000000000000D+00
   394  3.9300000000000D+00  0.0000000000000D+00  0.0000000000000D+00
   395  3.9400000000000D+00  0.0000000000000D+00  0.0000000000000D+00
   396  3.9500000000000D+00  0.0000000000000D+00  0.0000000000000D+00
   397  3.9600000000000D+00  0.0000000000000D+00  0.0000000000000D+00
   398  3.9700000000000D+00  0.0000000000000D+00  0.0000000000000D+00
   399  3.9800000000000D+00  0.0000000000000D+00  0.0000000000000D+00
   400  3.9900000000000D+00  0.0000000000000D+00  0.0000000000000D+00
   401  4.0000000000000D+00  0.0000000000000D+00  0.0000000000000D+00
   402  4.0100000000000D+00  0.0000000000000D+00  0.0000000000000D+00
   403  4.0200000000000D+00  0.0000000000000D+00  0.0000000000000D+00
   404  4.0300000000000D+00  0.0000000000000D+00  0.0000000000000D+00
   405  4.0400000000000D+00  0.0000000000000D+00  0.0000000000000D+00
   406  4.0500000000000D+00  0.0000000000000D+00  0.0000000000000D+00
   407  4.0600000000000D+00  0.0000000000000D+00  0.0000000000000D+00
   408  4.0700000000000D+00  0.0000000000000D+00  0.0000000000000D+00
   409  4.0800000000000D+00  0.0000000000000D+00  0.0000000000000D+00
   410  4.0900000000000D+00  0.0000000000000D+00  0.0000000000000D+00
   411  4.1000000000000D+00  0.0000000000000D+00  0.0000000000000D+00
   412  4.1100000000000D+00  0.0000000000000D+00  0.0000000000000D+00
   413  4.1200000000000D+00  0.0000000000000D+00  0.0000000000000D+00
   414  4.1300000000000D+00  0.0000000000000D+00  0.0000000000000D+00
   415  4.1400000000000D+00  0.0000000000000D+00  0.0000000000000D+00
   416  4.1500000000000D+00  0.0000000000000D+00  0.0000000000000D+00
   417  4.1600000000000D+00  0.0000000000000D+00  0.0000000000000D+00
   418  4.1700000000000D+00  0.0000000000000D+00  0.0000000000000D+00
   419  4.1800000000000D+00  0.0000000000000D+00  0.0000000000000D+00
   420  4.1900000000000D+00  0.0000000000000D+00  0.0000000000000D+00
   421  4.2000000000000D+00  0.0000000000000D+00  0.0000000000000D+00
   422  4.2100000000000D+00  0.0000000000000D+00  0.0000000000000D+00