Yb    ONCVPSP-3.3.0  r_core=   1.80778   1.51161   1.66296   1.70311
     70.0000     24.0000      220408    zatom,zion,pspd
     8       2   3     4   600     0    pspcod,pspxc,lmax,lloc,mmax,r2well
  5.99000000  0.00000000  0.00000000    rchrg fchrg qchrg
     2     2     2     2     0    nproj
     1     1           extension_switch
   0                         1.9186198896137D+01  1.5190888718437D+00
     1  0.0000000000000D+00 -2.4057339453876D-10  4.8696974230822D-10
     2  1.0000000000000D-02  6.3572118191319D-02 -1.2976836703597D-02
     3  2.0000000000000D-02  1.2698244657726D-01 -2.5770084728712D-02
     4  3.0000000000000D-02  1.9007004602307D-01 -3.8197710911253D-02
     5  4.0000000000000D-02  2.5267567185870D-01 -5.0080779176355D-02
     6  5.0000000000000D-02  3.1464260398122D-01 -6.1244964358494D-02
     7  6.0000000000000D-02  3.7581745657289D-01 -7.1522024699286D-02
     8  7.0000000000000D-02  4.3605096092430D-01 -8.0751219824244D-02
     9  8.0000000000000D-02  4.9519871509273D-01 -8.8780661486753D-02
    10  9.0000000000000D-02  5.5312189442246D-01 -9.5468584968405D-02
    11  1.0000000000000D-01  6.0968791730436D-01 -1.0068452973478D-01
    12  1.1000000000000D-01  6.6477106095318D-01 -1.0431041875841D-01
    13  1.2000000000000D-01  7.1825302242929D-01 -1.0624152682967D-01
    14  1.3000000000000D-01  7.7002342062315D-01 -1.0638732917316D-01
    15  1.4000000000000D-01  8.1998023545161D-01 -1.0467222276414D-01
    16  1.5000000000000D-01  8.6803018107994D-01 -1.0103611388698D-01
    17  1.6000000000000D-01  9.1408901057813D-01 -9.5434866685377D-02
    18  1.7000000000000D-01  9.5808175003853D-01 -8.7840608712711D-02
    19  1.8000000000000D-01  9.9994286081913D-01 -7.8241890787970D-02
    20  1.9000000000000D-01  1.0396163292275D+00 -6.6643699788641D-02
    21  2.0000000000000D-01  1.0770556836171D+00 -5.3067324353172D-02
    22  2.1000000000000D-01  1.1122239395278D+00 -3.7550074812331D-02
    23  2.2000000000000D-01  1.1450934741547D+00 -2.0144860006760D-02
    24  2.3000000000000D-01  1.1756458320743D+00 -9.1962496762811D-04
    25  2.4000000000000D-01  1.2038714647814D+00  2.0043345276089D-02
    26  2.5000000000000D-01  1.2297694071973D+00  4.2648249255324D-02
    27  2.6000000000000D-01  1.2533468948817D+00  6.6786712286732D-02
    28  2.7000000000000D-01  1.2746189262251D+00  9.2338840546293D-02
    29  2.8000000000000D-01  1.2936077744006D+00  1.1917437612346D-01
    30  2.9000000000000D-01  1.3103424543111D+00  1.4715394222961D-01
    31  3.0000000000000D-01  1.3248581501816D+00  1.7613036686974D-01
    32  3.1000000000000D-01  1.3371956097991D+00  2.0595007252821D-01
    33  3.2000000000000D-01  1.3474005117050D+00  2.3645451877233D-01
    34  3.3000000000000D-01  1.3555228118878D+00  2.6748168415060D-01
    35  3.4000000000000D-01  1.3616160766962D+00  2.9886757336100D-01
    36  3.5000000000000D-01  1.3657368088112D+00  3.3044773539187D-01
    37  3.6000000000000D-01  1.3679437731587D+00  3.6205877820107D-01
    38  3.7000000000000D-01  1.3682973296227D+00  3.9353986549569D-01
    39  3.8000000000000D-01  1.3668587793323D+00  4.2473418131096D-01
    40  3.9000000000000D-01  1.3636897311357D+00  4.5549034835835D-01
    41  4.0000000000000D-01  1.3588514946510D+00  4.8566378652228D-01
    42  4.1000000000000D-01  1.3524045059961D+00  5.1511799842558D-01
    43  4.2000000000000D-01  1.3444077919444D+00  5.4372576965498D-01
    44  4.3000000000000D-01  1.3349184778420D+00  5.7137027203327D-01
    45  4.4000000000000D-01  1.3239913441534D+00  5.9794605923628D-01
    46  4.5000000000000D-01  1.3116784359789D+00  6.2335994507602D-01
    47  4.6000000000000D-01  1.2980287293178D+00  6.4753175589335D-01
    48  4.7000000000000D-01  1.2830878572399D+00  6.7039494971838D-01
    49  4.8000000000000D-01  1.2668978984778D+00  6.9189709614931D-01
    50  4.9000000000000D-01  1.2494972302740D+00  7.1200021226231D-01
    51  5.0000000000000D-01  1.2309204466121D+00  7.3068095128009D-01
    52  5.1000000000000D-01  1.2111983422438D+00  7.4793064218463D-01
    53  5.2000000000000D-01  1.1903579621927D+00  7.6375517994142D-01
    54  5.3000000000000D-01  1.1684227156856D+00  7.7817476750029D-01
    55  5.4000000000000D-01  1.1454125527387D+00  7.9122351222705D-01
    56  5.5000000000000D-01  1.1213442009131D+00  8.0294888089689D-01
    57  5.6000000000000D-01  1.0962314590683D+00  8.1341101881667D-01
    58  5.7000000000000D-01  1.0700855442807D+00  8.2268194003548D-01
    59  5.8000000000000D-01  1.0429154874738D+00  8.3084459692696D-01
    60  5.9000000000000D-01  1.0147285727291D+00  8.3799183867305D-01
    61  6.0000000000000D-01  9.8553081471916D-01  8.4422526933213D-01
    62  6.1000000000000D-01  9.5532746824009D-01  8.4965401722095D-01
    63  6.2000000000000D-01  9.2412356341359D-01  8.5439342826567D-01
    64  6.3000000000000D-01  8.9192445979628D-01  8.5856369677752D-01
    65  6.4000000000000D-01  8.5873641237493D-01  8.6228844776251D-01
    66  6.5000000000000D-01  8.2456714224408D-01  8.6569328538483D-01
    67  6.6000000000000D-01  7.8942640466407D-01  8.6890432255541D-01
    68  6.7000000000000D-01  7.5332654718160D-01  8.7204670680723D-01
    69  6.8000000000000D-01  7.1628305056541D-01  8.7524315764563D-01
    70  6.9000000000000D-01  6.7831504546604D-01  8.7861253041922D-01
    71  7.0000000000000D-01  6.3944579795037D-01  8.8226842144795D-01
    72  7.1000000000000D-01  5.9970315738585D-01  8.8631782867324D-01
    73  7.2000000000000D-01  5.5911996055786D-01  8.9085988145672D-01
    74  7.3000000000000D-01  5.1773438638682D-01  8.9598465236497D-01
    75  7.4000000000000D-01  4.7559025616839D-01  9.0177206284036D-01
    76  7.5000000000000D-01  4.3273727488649D-01  9.0829089357902D-01
    77  7.6000000000000D-01  3.8923120982938D-01  9.1559790924197D-01
    78  7.7000000000000D-01  3.4513400348135D-01  9.2373710580414D-01
    79  7.8000000000000D-01  3.0051381844138D-01  9.3273908743982D-01
    80  7.9000000000000D-01  2.5544501293797D-01  9.4262057835076D-01
    81  8.0000000000000D-01  2.1000804635152D-01  9.5338407338917D-01
    82  8.1000000000000D-01  1.6428931501222D-01  9.6501762973256D-01
    83  8.2000000000000D-01  1.1838091940153D-01  9.7749480024767D-01
    84  8.3000000000000D-01  7.2380364738085D-02  9.9077470756119D-01
    85  8.4000000000000D-01  2.6390197761076D-02  1.0048022562546D+00
    86  8.5000000000000D-01 -1.9482416673345D-02  1.0195084790421D+00
    87  8.6000000000000D-01 -6.5126174808821D-02  1.0348110112966D+00
    88  8.7000000000000D-01 -1.1042616393979D-01  1.0506146868795D+00
    89  8.8000000000000D-01 -1.5526443737884D-01  1.0668122469250D+00
    90  8.9000000000000D-01 -1.9952062815851D-01  1.0832851520569D+00
    91  9.0000000000000D-01 -2.4307259470794D-01  1.0999044874775D+00
    92  9.1000000000000D-01 -2.8579709136120D-01  1.1165319495020D+00
    93  9.2000000000000D-01 -3.2757045627312D-01  1.1330209014169D+00
    94  9.3000000000000D-01 -3.6826930914677D-01  1.1492174860376D+00
    95  9.4000000000000D-01 -4.0777125111963D-01  1.1649617820392D+00
    96  9.5000000000000D-01 -4.4595555921743D-01  1.1800889910446D+00
    97  9.6000000000000D-01 -4.8270386796671D-01  1.1944306425722D+00
    98  9.7000000000000D-01 -5.1790083106583D-01  1.2078158042986D+00
    99  9.8000000000000D-01 -5.5143475643685D-01  1.2200722856374D+00
   100  9.9000000000000D-01 -5.8319820852254D-01  1.2310278234086D+00
   101  1.0000000000000D+00 -6.1308857236125D-01  1.2405112393588D+00
   102  1.0100000000000D+00 -6.4100857472959D-01  1.2483535604551D+00
   103  1.0200000000000D+00 -6.6686675851161D-01  1.2543890942272D+00
   104  1.0300000000000D+00 -6.9057790739917D-01  1.2584564529353D+00
   105  1.0400000000000D+00 -7.1206341909830D-01  1.2603995220581D+00
   106  1.0500000000000D+00 -7.3125162621472D-01  1.2600683702065D+00
   107  1.0600000000000D+00 -7.4807806524001D-01  1.2573200996029D+00
   108  1.0700000000000D+00 -7.6248569516072D-01  1.2520196380634D+00
   109  1.0800000000000D+00 -7.7442506839777D-01  1.2440404753613D+00
   110  1.0900000000000D+00 -7.8385445800964D-01  1.2332653488568D+00
   111  1.1000000000000D+00 -7.9073994607474D-01  1.2195868848870D+00
   112  1.1100000000000D+00 -7.9505547943039D-01  1.2029082044627D+00
   113  1.1200000000000D+00 -7.9678289982654D-01  1.1831435032459D+00
   114  1.1300000000000D+00 -7.9591195649793D-01  1.1602186172831D+00
   115  1.1400000000000D+00 -7.9244030984145D-01  1.1340715870376D+00
   116  1.1500000000000D+00 -7.8637353557961D-01  1.1046532333208D+00
   117  1.1600000000000D+00 -7.7772513919777D-01  1.0719277592662D+00
   118  1.1700000000000D+00 -7.6651659056280D-01  1.0358733925144D+00
   119  1.1800000000000D+00 -7.5277738868374D-01  9.9648308172583D-01
   120  1.1900000000000D+00 -7.3654516632249D-01  9.5376526084706D-01
   121  1.2000000000000D+00 -7.1786584347982D-01  9.0774469314592D-01
   122  1.2100000000000D+00 -6.9679383766840D-01  8.5846340481189D-01
   123  1.2200000000000D+00 -6.7339233839379D-01  8.0598171689995D-01
   124  1.2300000000000D+00 -6.4773365084451D-01  7.5037937971858D-01
   125  1.2400000000000D+00 -6.1989961145415D-01  6.9175680934835D-01
   126  1.2500000000000D+00 -5.8998207740898D-01  6.3023642481570D-01
   127  1.2600000000000D+00 -5.5808348737077D-01  5.6596407537605D-01
   128  1.2700000000000D+00 -5.2431748696734D-01  4.9911054043200D-01
   129  1.2800000000000D+00 -4.8880961176160D-01  4.2987308300593D-01
   130  1.2900000000000D+00 -4.5169801328098D-01  3.5847702436111D-01
   131  1.3000000000000D+00 -4.1313420716748D-01  2.8517729525656D-01
   132  1.3100000000000D+00 -3.7328382350292D-01  2.1025992114462D-01
   133  1.3200000000000D+00 -3.3232732711116D-01  1.3404337583556D-01
   134  1.3300000000000D+00 -2.9046066657518D-01  5.6879721350730D-02
   135  1.3400000000000D+00 -2.4789581719219D-01 -2.0844536299365D-02
   136  1.3500000000000D+00 -2.0486115648693D-01 -9.8707995037121D-02
   137  1.3600000000000D+00 -1.6160161176263D-01 -1.7625442637420D-01
   138  1.3700000000000D+00 -1.1837851788020D-01 -2.5299348721703D-01
   139  1.3800000000000D+00 -7.5469088767536D-02 -3.2840225862336D-01
   140  1.3900000000000D+00 -3.3165422702856D-02 -4.0192776561843D-01
   141  1.4000000000000D+00  8.2270647113996D-03 -4.7299068064121D-01
   142  1.4100000000000D+00  4.8391914465161D-02 -5.4099046623680D-01
   143  1.4200000000000D+00  8.7004704421713D-02 -6.0531214725428D-01
   144  1.4300000000000D+00  1.2373711993856D-01 -6.6533506001080D-01
   145  1.4400000000000D+00  1.5826215253126D-01 -7.2044383984348D-01
   146  1.4500000000000D+00  1.9026060934100D-01 -7.7004199220099D-01
   147  1.4600000000000D+00  2.1942919740752D-01 -8.1356855082200D-01
   148  1.4700000000000D+00  2.4549022627972D-01 -8.5051788648743D-01
   149  1.4800000000000D+00  2.6820359874756D-01 -8.8046397442712D-01
   150  1.4900000000000D+00  2.8737962196463D-01 -9.0308614543665D-01
   151  1.5000000000000D+00  3.0289502949812D-01 -9.1820099011861D-01
   152  1.5100000000000D+00  3.1472239410940D-01 -9.2582156219814D-01
   153  1.5200000000000D+00  3.2292594882042D-01 -9.2614706137686D-01
   154  1.5300000000000D+00  3.2766813870659D-01 -9.1957366363009D-01
   155  1.5400000000000D+00  3.2915161624867D-01 -9.0657521551019D-01
   156  1.5500000000000D+00  3.2749925289717D-01 -8.8745738221569D-01
   157  1.5600000000000D+00  3.2288929216897D-01 -8.6263390436268D-01
   158  1.5700000000000D+00  3.1564457036674D-01 -8.3280921724307D-01
   159  1.5800000000000D+00  3.0606673481670D-01 -7.9863964477187D-01
   160  1.5900000000000D+00  2.9437877516511D-01 -7.6061622223085D-01
   161  1.6000000000000D+00  2.8082371366539D-01 -7.1926686766936D-01
   162  1.6100000000000D+00  2.6567698750987D-01 -6.7518204744202D-01
   163  1.6200000000000D+00  2.4921173292343D-01 -6.2894403206223D-01
   164  1.6300000000000D+00  2.3169831069316D-01 -5.8112623444297D-01
   165  1.6400000000000D+00  2.1340732076441D-01 -5.3229969454873D-01
   166  1.6500000000000D+00  1.9460641088178D-01 -4.8302686443147D-01
   167  1.6600000000000D+00  1.7555784404796D-01 -4.3385694695294D-01
   168  1.6700000000000D+00  1.5651649610689D-01 -3.8532211048317D-01
   169  1.6800000000000D+00  1.3772782183690D-01 -3.3793363359864D-01
   170  1.6900000000000D+00  1.1942589773723D-01 -2.9217819764065D-01
   171  1.7000000000000D+00  1.0183155132948D-01 -2.4851434566277D-01
   172  1.7100000000000D+00  8.5150599254610D-02 -2.0736914980499D-01
   173  1.7200000000000D+00  6.9572200252117D-02 -1.6913509859352D-01
   174  1.7300000000000D+00  5.5267345673629D-02 -1.3416724692816D-01
   175  1.7400000000000D+00  4.2387490022677D-02 -1.0278063344948D-01
   176  1.7500000000000D+00  3.1070098941107D-02 -7.5264348086397D-02
   177  1.7600000000000D+00  2.1411069314866D-02 -5.1815382975585D-02
   178  1.7700000000000D+00  1.3459540927791D-02 -3.2527476865877D-02
   179  1.7800000000000D+00  7.3455391827255D-03 -1.7696947101613D-02
   180  1.7900000000000D+00  3.2415757853346D-03 -7.7283839495473D-03
   181  1.8000000000000D+00  1.0109731404506D-03 -2.3004148163864D-03
   182  1.8100000000000D+00  9.9774491706998D-05 -1.0855392902222D-04
   183  1.8200000000000D+00 -8.7107421758363D-05  2.7590444507887D-04
   184  1.8300000000000D+00  3.8745485131917D-06 -1.1208827730582D-05
   185  1.8400000000000D+00  4.2664761773841D-05 -1.1906248490790D-04
   186  1.8500000000000D+00  7.8909933220965D-06 -2.1670601443267D-05
   187  1.8600000000000D+00 -6.4469892603640D-06  1.9055609075753D-05
   188  1.8700000000000D+00 -3.2454150016987D-06  9.4378446963601D-06
   189  1.8800000000000D+00 -5.2508955178405D-07  9.3446893665931D-07
   190  1.8900000000000D+00 -4.5683726310717D-07  8.1300461993896D-07
   191  1.9000000000000D+00  0.0000000000000D+00  0.0000000000000D+00
   192  1.9100000000000D+00  0.0000000000000D+00  0.0000000000000D+00
   193  1.9200000000000D+00  0.0000000000000D+00  0.0000000000000D+00
   194  1.9300000000000D+00  0.0000000000000D+00  0.0000000000000D+00
   195  1.9400000000000D+00  0.0000000000000D+00  0.0000000000000D+00
   196  1.9500000000000D+00  0.0000000000000D+00  0.0000000000000D+00
   197  1.9600000000000D+00  0.0000000000000D+00  0.0000000000000D+00
   198  1.9700000000000D+00  0.0000000000000D+00  0.0000000000000D+00
   199  1.9800000000000D+00  0.0000000000000D+00  0.0000000000000D+00
   200  1.9900000000000D+00  0.0000000000000D+00  0.0000000000000D+00
   201  2.0000000000000D+00  0.0000000000000D+00  0.0000000000000D+00
   202  2.0100000000000D+00  0.0000000000000D+00  0.0000000000000D+00
   203  2.0200000000000D+00  0.0000000000000D+00  0.0000000000000D+00
   204  2.0300000000000D+00  0.0000000000000D+00  0.0000000000000D+00
   205  2.0400000000000D+00  0.0000000000000D+00  0.0000000000000D+00
   206  2.0500000000000D+00  0.0000000000000D+00  0.0000000000000D+00
   207  2.0600000000000D+00  0.0000000000000D+00  0.0000000000000D+00
   208  2.0700000000000D+00  0.0000000000000D+00  0.0000000000000D+00
   209  2.0800000000000D+00  0.0000000000000D+00  0.0000000000000D+00
   210  2.0900000000000D+00  0.0000000000000D+00  0.0000000000000D+00
   211  2.1000000000000D+00  0.0000000000000D+00  0.0000000000000D+00
   212  2.1100000000000D+00  0.0000000000000D+00  0.0000000000000D+00
   213  2.1200000000000D+00  0.0000000000000D+00  0.0000000000000D+00
   214  2.1300000000000D+00  0.0000000000000D+00  0.0000000000000D+00
   215  2.1400000000000D+00  0.0000000000000D+00  0.0000000000000D+00
   216  2.1500000000000D+00  0.0000000000000D+00  0.0000000000000D+00
   217  2.1600000000000D+00  0.0000000000000D+00  0.0000000000000D+00
   218  2.1700000000000D+00  0.0000000000000D+00  0.0000000000000D+00
   219  2.1800000000000D+00  0.0000000000000D+00  0.0000000000000D+00
   220  2.1900000000000D+00  0.0000000000000D+00  0.0000000000000D+00
   221  2.2000000000000D+00  0.0000000000000D+00  0.0000000000000D+00
   222  2.2100000000000D+00  0.0000000000000D+00  0.0000000000000D+00
   223  2.2200000000000D+00  0.0000000000000D+00  0.0000000000000D+00
   224  2.2300000000000D+00  0.0000000000000D+00  0.0000000000000D+00
   225  2.2400000000000D+00  0.0000000000000D+00  0.0000000000000D+00
   226  2.2500000000000D+00  0.0000000000000D+00  0.0000000000000D+00
   227  2.2600000000000D+00  0.0000000000000D+00  0.0000000000000D+00
   228  2.2700000000000D+00  0.0000000000000D+00  0.0000000000000D+00
   229  2.2800000000000D+00  0.0000000000000D+00  0.0000000000000D+00
   230  2.2900000000000D+00  0.0000000000000D+00  0.0000000000000D+00
   231  2.3000000000000D+00  0.0000000000000D+00  0.0000000000000D+00
   232  2.3100000000000D+00  0.0000000000000D+00  0.0000000000000D+00
   233  2.3200000000000D+00  0.0000000000000D+00  0.0000000000000D+00
   234  2.3300000000000D+00  0.0000000000000D+00  0.0000000000000D+00
   235  2.3400000000000D+00  0.0000000000000D+00  0.0000000000000D+00
   236  2.3500000000000D+00  0.0000000000000D+00  0.0000000000000D+00
   237  2.3600000000000D+00  0.0000000000000D+00  0.0000000000000D+00
   238  2.3700000000000D+00  0.0000000000000D+00  0.0000000000000D+00
   239  2.3800000000000D+00  0.0000000000000D+00  0.0000000000000D+00
   240  2.3900000000000D+00  0.0000000000000D+00  0.0000000000000D+00
   241  2.4000000000000D+00  0.0000000000000D+00  0.0000000000000D+00
   242  2.4100000000000D+00  0.0000000000000D+00  0.0000000000000D+00
   243  2.4200000000000D+00  0.0000000000000D+00  0.0000000000000D+00
   244  2.4300000000000D+00  0.0000000000000D+00  0.0000000000000D+00
   245  2.4400000000000D+00  0.0000000000000D+00  0.0000000000000D+00
   246  2.4500000000000D+00  0.0000000000000D+00  0.0000000000000D+00
   247  2.4600000000000D+00  0.0000000000000D+00  0.0000000000000D+00
   248  2.4700000000000D+00  0.0000000000000D+00  0.0000000000000D+00
   249  2.4800000000000D+00  0.0000000000000D+00  0.0000000000000D+00
   250  2.4900000000000D+00  0.0000000000000D+00  0.0000000000000D+00
   251  2.5000000000000D+00  0.0000000000000D+00  0.0000000000000D+00
   252  2.5100000000000D+00  0.0000000000000D+00  0.0000000000000D+00
   253  2.5200000000000D+00  0.0000000000000D+00  0.0000000000000D+00
   254  2.5300000000000D+00  0.0000000000000D+00  0.0000000000000D+00
   255  2.5400000000000D+00  0.0000000000000D+00  0.0000000000000D+00
   256  2.5500000000000D+00  0.0000000000000D+00  0.0000000000000D+00
   257  2.5600000000000D+00  0.0000000000000D+00  0.0000000000000D+00
   258  2.5700000000000D+00  0.0000000000000D+00  0.0000000000000D+00
   259  2.5800000000000D+00  0.0000000000000D+00  0.0000000000000D+00
   260  2.5900000000000D+00  0.0000000000000D+00  0.0000000000000D+00
   261  2.6000000000000D+00  0.0000000000000D+00  0.0000000000000D+00
   262  2.6100000000000D+00  0.0000000000000D+00  0.0000000000000D+00
   263  2.6200000000000D+00  0.0000000000000D+00  0.0000000000000D+00
   264  2.6300000000000D+00  0.0000000000000D+00  0.0000000000000D+00
   265  2.6400000000000D+00  0.0000000000000D+00  0.0000000000000D+00
   266  2.6500000000000D+00  0.0000000000000D+00  0.0000000000000D+00
   267  2.6600000000000D+00  0.0000000000000D+00  0.0000000000000D+00
   268  2.6700000000000D+00  0.0000000000000D+00  0.0000000000000D+00
   269  2.6800000000000D+00  0.0000000000000D+00  0.0000000000000D+00
   270  2.6900000000000D+00  0.0000000000000D+00  0.0000000000000D+00
   271  2.7000000000000D+00  0.0000000000000D+00  0.0000000000000D+00
   272  2.7100000000000D+00  0.0000000000000D+00  0.0000000000000D+00
   273  2.7200000000000D+00  0.0000000000000D+00  0.0000000000000D+00
   274  2.7300000000000D+00  0.0000000000000D+00  0.0000000000000D+00
   275  2.7400000000000D+00  0.0000000000000D+00  0.0000000000000D+00
   276  2.7500000000000D+00  0.0000000000000D+00  0.0000000000000D+00
   277  2.7600000000000D+00  0.0000000000000D+00  0.0000000000000D+00
   278  2.7700000000000D+00  0.0000000000000D+00  0.0000000000000D+00
   279  2.7800000000000D+00  0.0000000000000D+00  0.0000000000000D+00
   280  2.7900000000000D+00  0.0000000000000D+00  0.0000000000000D+00
   281  2.8000000000000D+00  0.0000000000000D+00  0.0000000000000D+00
   282  2.8100000000000D+00  0.0000000000000D+00  0.0000000000000D+00
   283  2.8200000000000D+00  0.0000000000000D+00  0.0000000000000D+00
   284  2.8300000000000D+00  0.0000000000000D+00  0.0000000000000D+00
   285  2.8400000000000D+00  0.0000000000000D+00  0.0000000000000D+00
   286  2.8500000000000D+00  0.0000000000000D+00  0.0000000000000D+00
   287  2.8600000000000D+00  0.0000000000000D+00  0.0000000000000D+00
   288  2.8700000000000D+00  0.0000000000000D+00  0.0000000000000D+00
   289  2.8800000000000D+00  0.0000000000000D+00  0.0000000000000D+00
   290  2.8900000000000D+00  0.0000000000000D+00  0.0000000000000D+00
   291  2.9000000000000D+00  0.0000000000000D+00  0.0000000000000D+00
   292  2.9100000000000D+00  0.0000000000000D+00  0.0000000000000D+00
   293  2.9200000000000D+00  0.0000000000000D+00  0.0000000000000D+00
   294  2.9300000000000D+00  0.0000000000000D+00  0.0000000000000D+00
   295  2.9400000000000D+00  0.0000000000000D+00  0.0000000000000D+00
   296  2.9500000000000D+00  0.0000000000000D+00  0.0000000000000D+00
   297  2.9600000000000D+00  0.0000000000000D+00  0.0000000000000D+00
   298  2.9700000000000D+00  0.0000000000000D+00  0.0000000000000D+00
   299  2.9800000000000D+00  0.0000000000000D+00  0.0000000000000D+00
   300  2.9900000000000D+00  0.0000000000000D+00  0.0000000000000D+00
   301  3.0000000000000D+00  0.0000000000000D+00  0.0000000000000D+00
   302  3.0100000000000D+00  0.0000000000000D+00  0.0000000000000D+00
   303  3.0200000000000D+00  0.0000000000000D+00  0.0000000000000D+00
   304  3.0300000000000D+00  0.0000000000000D+00  0.0000000000000D+00
   305  3.0400000000000D+00  0.0000000000000D+00  0.0000000000000D+00
   306  3.0500000000000D+00  0.0000000000000D+00  0.0000000000000D+00
   307  3.0600000000000D+00  0.0000000000000D+00  0.0000000000000D+00
   308  3.0700000000000D+00  0.0000000000000D+00  0.0000000000000D+00
   309  3.0800000000000D+00  0.0000000000000D+00  0.0000000000000D+00
   310  3.0900000000000D+00  0.0000000000000D+00  0.0000000000000D+00
   311  3.1000000000000D+00  0.0000000000000D+00  0.0000000000000D+00
   312  3.1100000000000D+00  0.0000000000000D+00  0.0000000000000D+00
   313  3.1200000000000D+00  0.0000000000000D+00  0.0000000000000D+00
   314  3.1300000000000D+00  0.0000000000000D+00  0.0000000000000D+00
   315  3.1400000000000D+00  0.0000000000000D+00  0.0000000000000D+00
   316  3.1500000000000D+00  0.0000000000000D+00  0.0000000000000D+00
   317  3.1600000000000D+00  0.0000000000000D+00  0.0000000000000D+00
   318  3.1700000000000D+00  0.0000000000000D+00  0.0000000000000D+00
   319  3.1800000000000D+00  0.0000000000000D+00  0.0000000000000D+00
   320  3.1900000000000D+00  0.0000000000000D+00  0.0000000000000D+00
   321  3.2000000000000D+00  0.0000000000000D+00  0.0000000000000D+00
   322  3.2100000000000D+00  0.0000000000000D+00  0.0000000000000D+00
   323  3.2200000000000D+00  0.0000000000000D+00  0.0000000000000D+00
   324  3.2300000000000D+00  0.0000000000000D+00  0.0000000000000D+00
   325  3.2400000000000D+00  0.0000000000000D+00  0.0000000000000D+00
   326  3.2500000000000D+00  0.0000000000000D+00  0.0000000000000D+00
   327  3.2600000000000D+00  0.0000000000000D+00  0.0000000000000D+00
   328  3.2700000000000D+00  0.0000000000000D+00  0.0000000000000D+00
   329  3.2800000000000D+00  0.0000000000000D+00  0.0000000000000D+00
   330  3.2900000000000D+00  0.0000000000000D+00  0.0000000000000D+00
   331  3.3000000000000D+00  0.0000000000000D+00  0.0000000000000D+00
   332  3.3100000000000D+00  0.0000000000000D+00  0.0000000000000D+00
   333  3.3200000000000D+00  0.0000000000000D+00  0.0000000000000D+00
   334  3.3300000000000D+00  0.0000000000000D+00  0.0000000000000D+00
   335  3.3400000000000D+00  0.0000000000000D+00  0.0000000000000D+00
   336  3.3500000000000D+00  0.0000000000000D+00  0.0000000000000D+00
   337  3.3600000000000D+00  0.0000000000000D+00  0.0000000000000D+00
   338  3.3700000000000D+00  0.0000000000000D+00  0.0000000000000D+00
   339  3.3800000000000D+00  0.0000000000000D+00  0.0000000000000D+00
   340  3.3900000000000D+00  0.0000000000000D+00  0.0000000000000D+00
   341  3.4000000000000D+00  0.0000000000000D+00  0.0000000000000D+00
   342  3.4100000000000D+00  0.0000000000000D+00  0.0000000000000D+00
   343  3.4200000000000D+00  0.0000000000000D+00  0.0000000000000D+00
   344  3.4300000000000D+00  0.0000000000000D+00  0.0000000000000D+00
   345  3.4400000000000D+00  0.0000000000000D+00  0.0000000000000D+00
   346  3.4500000000000D+00  0.0000000000000D+00  0.0000000000000D+00
   347  3.4600000000000D+00  0.0000000000000D+00  0.0000000000000D+00
   348  3.4700000000000D+00  0.0000000000000D+00  0.0000000000000D+00
   349  3.4800000000000D+00  0.0000000000000D+00  0.0000000000000D+00
   350  3.4900000000000D+00  0.0000000000000D+00  0.0000000000000D+00
   351  3.5000000000000D+00  0.0000000000000D+00  0.0000000000000D+00
   352  3.5100000000000D+00  0.0000000000000D+00  0.0000000000000D+00
   353  3.5200000000000D+00  0.0000000000000D+00  0.0000000000000D+00
   354  3.5300000000000D+00  0.0000000000000D+00  0.0000000000000D+00
   355  3.5400000000000D+00  0.0000000000000D+00  0.0000000000000D+00
   356  3.5500000000000D+00  0.0000000000000D+00  0.0000000000000D+00
   357  3.5600000000000D+00  0.0000000000000D+00  0.0000000000000D+00
   358  3.5700000000000D+00  0.0000000000000D+00  0.0000000000000D+00
   359  3.5800000000000D+00  0.0000000000000D+00  0.0000000000000D+00
   360  3.5900000000000D+00  0.0000000000000D+00  0.0000000000000D+00
   361  3.6000000000000D+00  0.0000000000000D+00  0.0000000000000D+00
   362  3.6100000000000D+00  0.0000000000000D+00  0.0000000000000D+00
   363  3.6200000000000D+00  0.0000000000000D+00  0.0000000000000D+00
   364  3.6300000000000D+00  0.0000000000000D+00  0.0000000000000D+00
   365  3.6400000000000D+00  0.0000000000000D+00  0.0000000000000D+00
   366  3.6500000000000D+00  0.0000000000000D+00  0.0000000000000D+00
   367  3.6600000000000D+00  0.0000000000000D+00  0.0000000000000D+00
   368  3.6700000000000D+00  0.0000000000000D+00  0.0000000000000D+00
   369  3.6800000000000D+00  0.0000000000000D+00  0.0000000000000D+00
   370  3.6900000000000D+00  0.0000000000000D+00  0.0000000000000D+00
   371  3.7000000000000D+00  0.0000000000000D+00  0.0000000000000D+00
   372  3.7100000000000D+00  0.0000000000000D+00  0.0000000000000D+00
   373  3.7200000000000D+00  0.0000000000000D+00  0.0000000000000D+00
   374  3.7300000000000D+00  0.0000000000000D+00  0.0000000000000D+00
   375  3.7400000000000D+00  0.0000000000000D+00  0.0000000000000D+00
   376  3.7500000000000D+00  0.0000000000000D+00  0.0000000000000D+00
   377  3.7600000000000D+00  0.0000000000000D+00  0.0000000000000D+00
   378  3.7700000000000D+00  0.0000000000000D+00  0.0000000000000D+00
   379  3.7800000000000D+00  0.0000000000000D+00  0.0000000000000D+00
   380  3.7900000000000D+00  0.0000000000000D+00  0.0000000000000D+00
   381  3.8000000000000D+00  0.0000000000000D+00  0.0000000000000D+00
   382  3.8100000000000D+00  0.0000000000000D+00  0.0000000000000D+00
   383  3.8200000000000D+00  0.0000000000000D+00  0.0000000000000D+00
   384  3.8300000000000D+00  0.0000000000000D+00  0.0000000000000D+00
   385  3.8400000000000D+00  0.0000000000000D+00  0.0000000000000D+00
   386  3.8500000000000D+00  0.0000000000000D+00  0.0000000000000D+00
   387  3.8600000000000D+00  0.0000000000000D+00  0.0000000000000D+00
   388  3.8700000000000D+00  0.0000000000000D+00  0.0000000000000D+00
   389  3.8800000000000D+00  0.0000000000000D+00  0.0000000000000D+00
   390  3.8900000000000D+00  0.0000000000000D+00  0.0000000000000D+00
   391  3.9000000000000D+00  0.0000000000000D+00  0.0000000000000D+00
   392  3.9100000000000D+00  0.0000000000000D+00  0.0000000000000D+00
   393  3.9200000000000D+00  0.0000000000000D+00  0.0000000000000D+00
   394  3.9300000000000D+00  0.0000000000000D+00  0.0000000000000D+00
   395  3.9400000000000D+00  0.0000000000000D+00  0.0000000000000D+00
   396  3.9500000000000D+00  0.0000000000000D+00  0.0000000000000D+00
   397  3.9600000000000D+00  0.0000000000000D+00  0.0000000000000D+00
   398  3.9700000000000D+00  0.0000000000000D+00  0.0000000000000D+00
   399  3.9800000000000D+00  0.0000000000000D+00  0.0000000000000D+00
   400  3.9900000000000D+00  0.0000000000000D+00  0.0000000000000D+00
   401  4.0000000000000D+00  0.0000000000000D+00  0.0000000000000D+00
   402  4.0100000000000D+00  0.0000000000000D+00  0.0000000000000D+00
   403  4.0200000000000D+00  0.0000000000000D+00  0.0000000000000D+00
   404  4.0300000000000D+00  0.0000000000000D+00  0.0000000000000D+00
   405  4.0400000000000D+00  0.0000000000000D+00  0.0000000000000D+00
   406  4.0500000000000D+00  0.0000000000000D+00  0.0000000000000D+00
   407  4.0600000000000D+00  0.0000000000000D+00  0.0000000000000D+00
   408  4.0700000000000D+00  0.0000000000000D+00  0.0000000000000D+00
   409  4.0800000000000D+00  0.0000000000000D+00  0.0000000000000D+00
   410  4.0900000000000D+00  0.0000000000000D+00  0.0000000000000D+00
   411  4.1000000000000D+00  0.0000000000000D+00  0.0000000000000D+00
   412  4.1100000000000D+00  0.0000000000000D+00  0.0000000000000D+00
   413  4.1200000000000D+00  0.0000000000000D+00  0.0000000000000D+00
   414  4.1300000000000D+00  0.0000000000000D+00  0.0000000000000D+00
   415  4.1400000000000D+00  0.0000000000000D+00  0.0000000000000D+00
   416  4.1500000000000D+00  0.0000000000000D+00  0.0000000000000D+00
   417  4.1600000000000D+00  0.0000000000000D+00  0.0000000000000D+00
   418  4.1700000000000D+00  0.0000000000000D+00  0.0000000000000D+00
   419  4.1800000000000D+00  0.0000000000000D+00  0.0000000000000D+00
   420  4.1900000000000D+00  0.0000000000000D+00  0.0000000000000D+00
   421  4.2000000000000D+00  0.0000000000000D+00  0.0000000000000D+00
   422  4.2100000000000D+00  0.0000000000000D+00  0.0000000000000D+00